ITEM: TIMESTEP
240000
ITEM: NUMBER OF ATOMS
4320
ITEM: BOX BOUNDS xy xz yz pp pp pp 
0 28.965 9.655
0 19.31 0
0 9.655 0
ITEM: ATOMS id type x y z ix iy iz msd_nonAffine dx dy dz dx2 dy2 dz2 
3870 2 9.91111 4.76718 0.783338 0 -1 0 40.9865 -6.3944 0.200314 -0.240777 40.8884 0.0401258 0.0579736 
701 1 7.21904 1.54288 2.8729 0 0 0 32.0351 -5.63433 -0.535556 0.0511313 31.7457 0.286821 0.00261441 
2399 1 4.75071 8.43252 1.38804 0 0 0 18.6221 -4.14582 -1.19224 0.113124 17.1879 1.42144 0.0127971 
3119 1 7.33407 2.72718 7.85238 0 0 0 33.4665 -5.7628 -0.503235 -0.058066 33.2099 0.253246 0.00337166 
1 1 8.39027 4.72789 1.05757 0 0 0 45.7442 -6.73187 0.652693 0.0135948 45.318 0.426008 0.000184817 
1737 1 7.2948 7.18177 4.81382 0 0 0 35.4991 -5.93041 0.366713 0.441464 35.1697 0.134478 0.19489 
3767 2 10.9154 7.27841 0.812656 0 0 2 26.2456 -4.93637 1.36892 0.062525 24.3677 1.87393 0.00390938 
2991 1 10.8534 7.61585 7.20741 0 0 -1 32.9356 -5.63989 -0.246062 -1.03284 31.8083 0.0605465 1.06675 
2092 1 12.7602 6.23583 3.02005 0 0 0 32.6754 -5.71608 -0.0245826 0.0352992 32.6736 0.000604306 0.00124604 
3379 1 11.7453 6.26148 1.79317 0 0 0 38.4256 -6.11012 -0.850448 -0.607214 37.3336 0.723261 0.368709 
1585 1 10.2713 5.28264 5.18348 0 0 0 46.1777 -6.73995 -0.584865 0.639299 45.427 0.342067 0.408704 
3529 2 11.0494 3.45892 5.08015 -1 1 -1 35.4273 -5.9113 -0.691481 -0.0753467 34.9434 0.478146 0.00567712 
664 1 1.5764 0.114324 8.40278 0 0 0 22.8132 -4.76807 0.210785 0.185084 22.7345 0.0444302 0.0342561 
529 1 10.375 2.21583 2.81752 -1 0 1 30.3751 -5.47883 -0.5969 -0.0362185 30.0175 0.35629 0.00131178 
1944 1 4.64854 9.16124 2.04005 0 0 0 12.5533 -3.49831 -0.495701 -0.263444 12.2382 0.24572 0.0694027 
3203 1 0.926377 1.39413 0.391588 1 0 0 26.0221 -5.09278 0.274205 0.102762 25.9364 0.0751882 0.0105601 
1264 1 1.66509 1.52694 1.23691 0 1 0 26.4745 -5.13916 0.157637 0.196721 26.4109 0.0248495 0.038699 
756 1 7.69477 7.70547 5.66709 0 0 1 37.0698 -5.84162 -1.70443 0.200336 34.1245 2.90508 0.0401343 
3758 2 1.79067 0.757232 1.73904 0 0 1 24.3963 -4.93309 0.0821964 0.232707 24.3354 0.00675625 0.0541524 
663 1 2.41869 0.802673 1.15351 0 0 0 24.8328 -4.97957 0.0137217 0.190931 24.7961 0.000188284 0.0364546 
963 1 2.07681 1.3777 0.27833 0 1 1 27.7415 -5.26289 0.119312 0.171135 27.698 0.0142354 0.0292871 
4222 2 2.07825 0.503497 0.457024 1 0 -1 22.98 -4.78778 0.120499 0.206524 22.9228 0.0145201 0.0426522 
899 1 8.30077 7.9607 3.41012 0 0 0 42.3906 -6.24849 -1.08522 -1.47285 39.0436 1.1777 2.1693 
1252 1 2.89605 0.390118 0.244963 0 1 1 23.0934 -4.80172 -0.0722363 0.177947 23.0565 0.00521808 0.0316651 
2154 1 3.34276 0.816439 1.70852 0 0 1 25.4694 -5.03639 -0.111811 0.302635 25.3653 0.0125018 0.0915882 
4078 2 3.71225 1.29227 0.15138 0 1 0 23.5544 -4.84673 0.251889 -0.0156691 23.4907 0.0634482 0.00024552 
1783 1 4.91672 0.396098 0.82729 0 1 0 23.0577 -4.79636 -0.207224 -0.0987654 23.005 0.0429416 0.00975461 
1177 1 4.32771 1.44106 0.958368 0 0 1 25.652 -5.0637 0.0483776 0.0928514 25.641 0.00234039 0.00862139 
2805 1 3.78126 0.512605 0.745675 1 1 1 23.7179 -4.86709 0.0823592 0.15018 23.6886 0.00678304 0.0225539 
4061 2 6.64857 4.67922 5.81408 0 1 1 45.6697 -6.35859 -2.13007 -0.837179 40.4317 4.53718 0.700868 
4319 2 5.63042 2.85225 6.95552 1 0 0 31.9713 -5.6513 -0.174721 0.0592716 31.9372 0.0305274 0.00351312 
2237 1 9.71478 7.46767 2.84727 0 -1 0 31.9323 -5.54356 -0.966164 0.517398 30.7311 0.933474 0.267701 
3415 1 8.29082 6.86965 5.77423 0 1 0 44.3383 -6.63608 -0.347713 0.423996 44.0376 0.120905 0.179773 
1861 1 8.53931 8.98261 6.61873 0 0 0 19.5507 -4.35285 -0.609452 0.481667 18.9473 0.371431 0.232003 
1707 1 7.6546 5.70538 7.0921 0 0 -1 41.1287 -6.06991 -1.67252 -1.21968 36.8438 2.79731 1.48763 
3889 2 6.47181 8.12512 1.75303 0 -1 1 37.2928 -5.93014 -1.3771 0.479399 35.1666 1.89642 0.229824 
4118 2 5.69085 9.28712 1.45939 1 1 1 24.3365 -4.89586 -0.325227 -0.511187 23.9694 0.105772 0.261312 
2059 1 7.7161 1.91285 3.80435 0 0 0 30.9354 -5.54205 -0.453997 -0.122595 30.7143 0.206113 0.0150296 
2730 1 8.82789 3.17688 8.8589 0 0 0 33.5397 -5.76966 -0.348907 -0.359118 33.289 0.121736 0.128966 
3611 2 6.67735 2.01813 6.32995 0 0 -1 32.0975 -5.64928 -0.408867 -0.126292 31.9143 0.167173 0.0159496 
2935 1 10.3776 1.58039 6.59342 0 1 -1 30.0426 -5.45561 -0.517906 -0.103435 29.7637 0.268227 0.0106987 
128 1 8.88334 4.20742 8.77551 -1 0 -1 39.1775 -6.24589 -0.361408 -0.18898 39.0112 0.130616 0.0357135 
245 1 5.50589 9.39653 4.87582 0 0 0 32.3564 -5.60645 0.0345856 -0.960704 31.4322 0.00119616 0.922952 
153 1 3.44225 6.50921 8.00566 0 0 0 41.3321 -6.41636 -0.183201 -0.358912 41.1697 0.0335625 0.128818 
2721 1 12.3624 7.85105 2.38081 0 0 0 25.2301 -5.01796 0.116904 0.190953 25.18 0.0136665 0.0364632 
2161 1 11.0895 6.25242 8.03853 0 0 0 30.7323 -5.47065 -0.573261 0.689657 29.928 0.328628 0.475626 
3793 2 10.3822 3.42308 6.71872 0 1 -1 36.1753 -5.98768 -0.564195 -0.068311 35.8523 0.318316 0.0046664 
149 1 9.5265 0.969428 1.91815 -1 0 0 25.2225 -5.01879 -0.140649 -0.120217 25.1882 0.0197822 0.0144521 
671 1 9.92722 0.799952 7.4003 -1 0 0 27.4774 -5.20214 -0.644283 0.00587687 27.0623 0.415101 3.45376e-05 
3626 2 1.56938 2.05204 0.136246 0 0 0 29.0494 -5.38477 0.229836 0.0295633 28.9957 0.0528244 0.00087399 
1535 1 10.0174 9.27196 0.95305 0 0 1 32.3285 -5.61224 -0.87989 -0.238868 31.4973 0.774207 0.0570581 
3986 2 10.6338 2.31126 7.24206 0 0 -1 32.4489 -5.63067 -0.797908 -0.328347 31.7044 0.636657 0.107812 
1055 1 3.25388 1.53922 0.919944 0 0 0 26.3507 -5.12689 -0.127461 0.222564 26.285 0.0162464 0.0495346 
3784 2 2.44029 1.75793 1.17938 0 0 -1 27.5585 -5.24777 0.0156904 -0.138318 27.5391 0.00024619 0.0191319 
629 1 2.17863 2.46636 0.647547 0 0 0 31.4091 -5.60147 0.175593 0.0424326 31.3765 0.030833 0.00180053 
1563 1 3.12159 2.57707 1.28607 0 0 0 31.7175 -5.63137 -0.0365178 0.0618377 31.7124 0.00133355 0.00382391 
576 1 3.98574 3.08108 0.562516 0 0 0 32.7133 -5.71802 -0.0704302 0.112046 32.6958 0.00496041 0.0125542 
1632 1 3.86226 1.74442 1.85347 0 0 0 27.2473 -5.21043 -0.162019 0.269277 27.1486 0.0262501 0.0725103 
3737 2 3.9376 2.20335 1.0087 1 1 0 30.121 -5.48301 -0.0906012 0.222137 30.0634 0.00820858 0.0493448 
3175 1 4.84147 2.31723 0.811055 1 0 1 29.9389 -5.47053 -0.0176988 0.10932 29.9267 0.000313248 0.0119509 
1395 1 4.30104 2.7604 1.59649 0 1 1 31.2913 -5.59085 -0.129856 0.130004 31.2576 0.0168626 0.0169009 
3814 2 4.67406 2.84616 0.0114048 -1 0 2 32.038 -5.65975 -0.0657873 -0.0297135 32.0327 0.00432797 0.00088289 
1104 1 4.01408 2.08083 0.19478 0 0 0 27.9904 -5.28582 0.112734 0.194271 27.9399 0.0127089 0.0377412 
1604 1 8.75535 1.9471 3.42174 0 0 0 28.2433 -5.3024 -0.269591 0.234852 28.1155 0.0726792 0.0551554 
4201 2 8.9155 7.42211 1.75633 0 -1 0 32.2606 -5.53331 -1.15857 -0.548469 30.6175 1.34227 0.300818 
2029 1 6.45561 1.92002 5.48793 0 0 0 30.2947 -5.49479 -0.287555 -0.139049 30.1927 0.0826879 0.0193345 
4209 2 2.88285 5.65616 5.58738 1 0 0 44.5935 -6.67236 0.150032 -0.224872 44.5204 0.0225095 0.0505673 
723 1 6.7255 0.214272 5.8952 0 0 0 24.085 -4.8947 -0.356222 0.00367209 23.958 0.126894 1.34842e-05 
2275 1 9.85117 8.50736 0.186681 0 0 1 25.8038 -4.71031 -1.72552 -0.799563 22.187 2.97741 0.639301 
1793 1 9.12367 6.18604 5.32035 0 0 0 42.8563 -6.31961 -1.13827 -1.27406 39.9374 1.29567 1.62324 
3961 2 7.98311 1.74256 6.37205 0 0 0 30.174 -5.47236 -0.476148 0.0221252 29.9467 0.226717 0.000489523 
3716 2 7.75331 1.74754 1.76681 0 0 0 27.2264 -5.20948 -0.243393 -0.168614 27.1387 0.0592401 0.0284308 
146 1 3.11161 5.78422 9.64313 0 0 -1 40.5274 -6.33311 -0.269127 -0.588804 40.1083 0.0724295 0.34669 
2233 1 11.2051 4.83809 2.3173 0 0 1 43.6767 -6.55945 -0.439734 -0.675971 43.0264 0.193366 0.456936 
3938 2 8.87377 4.52026 5.10364 0 0 0 63.5034 -7.48588 -1.24482 2.43218 56.0383 1.54958 5.91548 
3341 1 10.8342 3.38284 4.25262 0 0 0 38.1012 -6.14294 -0.604362 -0.0161386 37.7357 0.365253 0.000260454 
4246 2 8.71039 7.35549 7.81506 0 0 -1 53.5722 -6.09373 -4.05316 -0.10237 37.1336 16.4281 0.0104797 
1722 1 3.41255 0.165087 2.61341 0 0 1 21.7914 -4.66491 -0.00750449 0.173072 21.7613 5.63174e-05 0.0299539 
650 1 11.8225 5.19235 4.36049 0 0 0 38.6821 -6.18649 -0.518145 -0.37541 38.2727 0.268474 0.140932 
1243 1 6.02182 9.41976 7.32665 0 0 0 21.0518 -4.46077 -0.946924 0.506663 19.8985 0.896665 0.256707 
2666 1 10.1821 2.41963 1.71552 0 0 0 29.593 -5.42765 -0.347481 -0.113423 29.4593 0.120743 0.0128647 
810 1 3.01588 3.44773 0.653324 0 1 1 32.0165 -5.65561 0.141193 0.103131 31.9859 0.0199355 0.0106361 
307 1 5.46616 9.6209 3.05429 0 0 0 19.7924 -4.34469 0.75856 0.583596 18.8764 0.575413 0.340584 
981 1 4.12783 4.07629 0.789606 0 1 0 28.3174 -5.29387 -0.178204 0.51044 28.0251 0.0317565 0.260549 
3546 2 3.14138 4.32115 0.324459 0 0 1 35.439 -5.90216 0.18025 -0.755667 34.8355 0.03249 0.571033 
2081 1 3.60819 3.50054 1.57045 0 0 0 35.3131 -5.93726 -0.169235 0.183057 35.251 0.0286406 0.0335097 
2050 1 2.41919 3.49022 1.56621 0 0 0 34.0249 -5.83242 0.037067 0.0797749 34.0171 0.00137396 0.00636403 
1503 1 5.87881 7.97631 8.7499 0 0 -1 30.6986 -5.44083 -0.576695 -0.87373 29.6027 0.332577 0.763404 
639 1 4.93574 3.44211 1.02291 0 0 0 33.3929 -5.77701 -0.00142141 0.13787 33.3739 2.02041e-06 0.019008 
1153 1 5.32957 4.35289 1.44283 0 0 0 41.2169 -6.4032 -0.286411 0.365882 41.001 0.0820313 0.13387 
1946 1 4.9204 4.66381 0.411283 0 1 0 31.8242 -5.62661 0.338138 -0.226261 31.6587 0.114337 0.0511941 
45 1 6.18148 3.56245 6.97636 0 0 -1 36.8024 -6.06055 -0.268614 -0.0024258 36.7303 0.0721537 5.8845e-06 
3844 2 7.60905 4.36014 3.11501 0 0 0 34.651 -5.87932 -0.213403 0.197462 34.5664 0.045541 0.0389914 
2414 1 5.91187 1.46732 1.67107 0 1 1 26.4472 -5.13851 -0.201182 -0.0500814 26.4042 0.0404741 0.00250815 
140 1 5.48212 3.7953 4.18036 0 0 1 38.755 -6.20874 -0.452995 0.0365484 38.5485 0.205204 0.00133579 
1216 1 8.50417 8.62822 2.68658 0 0 0 28.9433 -5.24238 -0.88534 -0.822722 27.4826 0.783827 0.676871 
2036 1 7.98682 3.77147 8.96106 0 0 -1 37.1318 -6.0383 -0.67516 -0.463523 36.4611 0.455841 0.214854 
1691 1 6.62018 0.997729 1.0441 0 0 1 26.0994 -5.09667 -0.351118 -0.00602576 25.9761 0.123284 3.63098e-05 
3966 2 7.47941 6.16813 0.430115 0 -1 0 44.9901 -6.61152 0.613676 -0.949414 43.7121 0.376598 0.901387 
2198 1 9.2788 5.14179 8.61064 0 0 0 42.0056 -6.46094 -0.507719 -0.0642267 41.7437 0.257778 0.00412507 
2630 1 9.12338 6.5695 3.13216 0 0 0 52.4414 -7.23422 0.250114 -0.211749 52.334 0.062557 0.0448377 
2579 1 10.8304 5.75378 4.10226 0 0 0 35.208 -5.86024 -0.907356 -0.205741 34.3424 0.823294 0.0423293 
749 1 10.5134 7.09611 8.01511 0 0 0 25.152 -4.98252 0.181869 0.541693 24.8255 0.0330762 0.293431 
116 1 10.4734 4.09086 5.03269 -1 0 -1 32.0349 -5.65701 -0.00464187 0.181947 32.0017 2.1547e-05 0.0331046 
808 1 11.3724 7.60617 8.49067 0 0 0 23.1291 -4.74842 -0.345435 -0.679864 22.5475 0.119326 0.462215 
1743 1 8.57194 2.28554 1.71222 0 0 1 29.5398 -5.40527 -0.340099 -0.455182 29.217 0.115667 0.207191 
3305 1 10.7368 8.24077 5.16383 0 0 0 36.2807 -5.98167 -0.678956 -0.198334 35.7804 0.460981 0.0393363 
2062 1 9.77033 1.06644 4.4837 0 0 0 29.4675 -5.33368 -0.50679 -0.873213 28.4482 0.256836 0.762501 
1089 1 2.46454 0.124816 4.32406 0 0 0 20.0729 -4.47933 0.0897393 0.0219199 20.0644 0.00805314 0.000480482 
655 1 3.749 5.83499 1.11691 0 0 0 26.7971 -5.15251 -0.297498 -0.400362 26.5483 0.0885049 0.16029 
527 1 1.0858 2.10495 1.89621 0 0 0 28.2256 -5.31069 0.0692538 0.131854 28.2034 0.00479609 0.0173854 
2653 1 4.47391 4.95851 1.34202 0 0 1 29.9586 -5.46775 0.0752512 0.237889 29.8963 0.00566275 0.0565911 
537 1 3.58273 4.99136 0.525322 0 0 0 29.2886 -5.39837 0.0301427 -0.381162 29.1424 0.000908583 0.145285 
80 1 4.78553 5.77446 0.741243 0 0 -1 31.1597 -5.57955 -0.140849 -0.0918371 31.1314 0.0198384 0.00843406 
4073 2 4.4766 4.69541 2.17365 0 0 0 49.3399 -6.80258 -1.59243 0.727312 46.2751 2.53583 0.528983 
3679 2 4.62766 5.80789 1.76254 0 1 2 38.4911 -6.04405 0.62515 1.25287 36.5306 0.390813 1.56967 
1626 1 6.30817 7.24041 0.0485414 0 0 0 39.7071 -6.20057 1.122 -0.034618 38.447 1.25889 0.0011984 
2357 1 5.90008 5.24962 0.586007 0 0 0 32.1107 -5.65461 0.0995208 0.355272 31.9746 0.00990439 0.126218 
2072 1 6.97444 6.2683 2.30129 0 0 0 40.9007 -6.37245 -0.313493 0.440807 40.6081 0.0982781 0.194311 
2497 1 5.27226 5.43809 9.45767 0 0 -1 40.6484 -6.26714 -0.471778 -1.07184 39.277 0.222575 1.14883 
1215 1 5.45464 5.4384 1.49578 0 0 1 31.7577 -5.61805 0.436719 0.0672011 31.5625 0.190723 0.00451599 
2665 1 6.65652 6.24187 0.533836 0 0 1 46.8581 -6.83662 -0.297748 -0.173383 46.7393 0.0886537 0.0300616 
3455 1 8.13703 5.41089 8.92025 0 0 0 43.2449 -6.5412 -0.675919 -0.0271368 42.7873 0.456867 0.000736406 
4019 2 6.46719 7.89065 6.81143 0 0 1 70.1228 -8.36164 0.374411 -0.256233 69.9169 0.140183 0.0656553 
2112 1 6.45318 2.06361 2.46787 0 0 0 27.336 -5.22327 -0.199413 -0.117235 27.2825 0.0397655 0.0137439 
3338 1 8.43248 6.84832 4.69018 0 0 0 32.7318 -5.65978 0.630088 -0.549229 32.0331 0.397011 0.301652 
3548 2 7.3373 1.5207 5.23558 0 1 0 29.8975 -5.42752 -0.656464 -0.0927758 29.458 0.430945 0.00860734 
3255 1 13.2994 8.41874 8.69381 0 0 0 34.0478 -5.80798 0.222553 -0.515333 33.7327 0.04953 0.265568 
2555 1 8.55912 4.37952 2.92087 0 0 0 36.1465 -5.9933 -0.458095 0.130278 35.9196 0.209851 0.0169722 
3541 2 11.7538 9.54794 6.08471 0 0 -2 2.539 -1.48637 0.567242 -0.0891344 2.20929 0.321763 0.00794493 
1724 1 8.08242 5.48364 0.323981 0 0 1 48.642 -6.92694 -0.4615 -0.668179 47.9826 0.212982 0.446463 
1991 1 4.69363 0.345681 9.0078 0 0 -1 22.988 -4.79033 0.109217 0.169841 22.9472 0.0119284 0.0288458 
4013 2 8.9583 5.45376 9.32507 0 0 -1 35.1308 -5.91823 0.323139 -0.0308229 35.0254 0.104419 0.00095005 
2111 1 8.9376 5.42706 3.26045 0 0 0 44.5444 -6.6202 -0.344335 0.773816 43.827 0.118567 0.598791 
3775 2 8.14866 1.46116 7.44653 0 0 1 29.1618 -5.38094 -0.452502 -0.050752 28.9545 0.204758 0.00257576 
3738 2 9.87726 2.67306 5.71466 0 0 -2 34.0407 -5.82083 -0.394217 -0.0574589 33.882 0.155407 0.00330153 
1989 1 7.25491 0.136979 6.80358 0 0 0 22.3301 -4.7075 -0.397371 -0.107964 22.1605 0.157904 0.0116562 
2000 1 8.56436 9.59158 3.08492 0 0 0 18.7253 -4.32585 -0.0309491 0.106585 18.713 0.000957845 0.0113603 
1191 1 4.33916 7.39728 9.36907 0 0 -1 38.7754 -6.04725 -0.606194 -1.35598 36.5693 0.367471 1.83868 
4287 2 3.67597 4.85566 1.42255 0 0 0 40.3228 -5.80742 -2.55175 0.292039 33.7261 6.51143 0.0852866 
872 1 12.7493 8.30371 0.297845 0 0 0 17.4724 -4.17321 -0.0812974 -0.22383 17.4157 0.00660926 0.0501001 
1963 1 4.91043 8.84793 8.80506 0 0 0 23.2664 -4.53693 1.04257 -1.26324 20.5837 1.08695 1.59577 
3539 2 4.81467 6.64462 0.454736 0 0 1 31.0042 -5.56723 -0.00581333 -0.100636 30.994 3.37948e-05 0.0101276 
1101 1 4.4467 6.57295 1.28036 0 0 1 47.3088 -6.85352 -0.218978 0.538626 46.9708 0.0479514 0.290118 
1364 1 4.80127 6.47432 9.23569 0 0 -1 40.234 -6.21298 -1.04187 -0.739847 38.6012 1.08549 0.547373 
1222 1 3.81342 6.63692 0.384624 0 0 0 40.9323 -6.3346 -0.393739 -0.806267 40.1272 0.155031 0.650066 
1980 1 5.27568 7.32893 9.60545 0 0 -1 38.8699 -6.0386 -0.496776 -1.46914 36.4647 0.246787 2.15836 
312 1 10.7857 3.63619 1.2499 -1 1 1 39.0674 -6.22758 -0.527862 -0.0770561 38.7828 0.278639 0.00593764 
2416 1 7.23983 6.68406 1.3304 0 0 1 26.7351 -5.0358 -1.08929 0.435118 25.3592 1.18654 0.189327 
551 1 5.61968 6.36218 0.333648 0 0 0 49.1674 -6.97102 -0.422048 -0.627737 48.5952 0.178125 0.394053 
4230 2 7.9282 7.40849 0.96823 1 0 0 16.987 -3.91867 0.884631 0.921109 15.3559 0.782572 0.848441 
1784 1 7.96934 8.29841 9.18071 0 0 -1 23.2763 -4.68577 1.01389 -0.540294 21.9564 1.02797 0.291918 
2536 1 7.07098 1.21961 6.32152 0 0 -1 28.2988 -5.29989 -0.453155 0.0686729 28.0888 0.20535 0.00471596 
2954 1 9.44207 7.54248 9.615 0 0 -1 52.2502 -7.10152 -0.137132 -1.34158 50.4315 0.0188051 1.79984 
1230 1 5.69488 5.0415 3.21498 0 0 1 46.2393 -6.78078 -0.344104 -0.376746 45.979 0.118408 0.141937 
3653 2 12.181 7.90438 5.92527 -1 0 0 35.4955 -5.74719 -0.69188 -1.40949 33.0302 0.478698 1.98667 
4032 2 8.52645 9.4288 5.7687 1 0 -1 17.8247 -4.1278 -0.845857 0.265522 17.0387 0.715474 0.0705019 
2881 1 11.6776 7.7058 0.735356 0 0 1 49.7123 -7.04677 -0.128884 0.196865 49.6569 0.0166111 0.038756 
2830 1 12.6116 6.75298 7.92373 0 0 -1 43.8638 -6.62028 -0.0437092 -0.183746 43.8282 0.00191049 0.0337626 
2791 1 7.36988 2.02036 6.96036 0 1 -1 31.7506 -5.62459 -0.291195 -0.172695 31.636 0.0847945 0.0298234 
481 1 11.4181 4.24061 7.55734 -1 1 0 43.9257 -6.59785 -0.627716 -0.00941509 43.5316 0.394027 8.8644e-05 
203 1 4.54101 8.51158 0.16987 0 0 1 13.2063 -3.61035 -0.215348 -0.354001 13.0346 0.0463747 0.125317 
3103 1 5.56619 2.30649 8.43728 0 0 -1 33.7356 -5.80254 -0.229741 0.115577 33.6694 0.0527811 0.0133582 
4221 2 7.42807 3.16992 6.05584 0 1 0 35.1016 -5.90751 -0.437663 0.106691 34.8986 0.191549 0.011383 
2263 1 6.77966 8.19245 0.46794 0 0 0 6.31698 -2.44748 -0.554265 -0.139957 5.99018 0.30721 0.0195879 
161 1 1.10865 2.10309 6.89572 0 0 0 27.899 -5.27323 0.302499 0.023251 27.807 0.0915054 0.00054061 
3064 1 4.38327 7.45439 0.779398 1 0 0 38.4191 -6.05551 -1.26073 0.400523 36.6692 1.58945 0.160419 
204 1 5.7301 7.6031 2.03828 0 0 0 26.071 -4.86257 -1.40032 0.68231 23.6446 1.9609 0.465546 
1037 1 5.51135 0.864619 7.10425 0 0 -1 25.5634 -5.05062 -0.225823 0.0601832 25.5088 0.050996 0.00362202 
3629 2 5.05677 8.07628 9.20271 0 0 -1 45.9628 -6.70222 -0.193487 -1.0028 44.9198 0.0374374 1.00561 
1613 1 5.6937 8.37329 0.121492 0 0 1 34.2079 -5.76787 -0.441293 -0.86309 33.2683 0.194739 0.744925 
2200 1 8.35171 5.41065 7.84303 0 0 0 32.7152 -5.71223 0.198544 0.21476 32.6296 0.0394196 0.0461216 
738 1 9.2926 8.21772 2.16468 0 0 0 26.9907 -5.05586 -1.09228 -0.485689 25.5618 1.19307 0.235894 
2009 1 13.225 8.71968 1.14674 0 0 0 26.3212 -5.08987 0.36795 -0.52824 25.9067 0.135387 0.279038 
1908 1 7.81847 8.1369 0.642956 0 0 0 30.6244 -5.50854 -0.259901 -0.461411 30.344 0.0675487 0.2129 
2908 1 6.20574 1.20501 2.99197 0 1 1 22.3847 -4.70475 -0.282689 -0.412523 22.1346 0.0799131 0.170175 
2076 1 11.8076 6.56035 8.6851 0 0 -1 42.2296 -6.48636 -0.00788511 -0.395768 42.0729 6.2175e-05 0.156632 
523 1 9.9527 3.92295 3.84999 -1 0 0 35.3892 -5.92811 0.380144 0.319774 35.1425 0.144509 0.102255 
3927 2 5.66568 2.2225 0.246375 -1 1 1 30.4263 -5.51375 -0.141787 0.0687691 30.4014 0.0201035 0.00472919 
4167 2 6.68344 2.5595 4.7768 0 1 0 28.7045 -5.35183 -0.246413 0.0401375 28.6421 0.0607191 0.00161102 
2173 1 11.6173 8.46716 1.85931 0 0 0 35.2241 -5.7056 1.57218 0.445598 32.5538 2.47175 0.198557 
4129 2 0.631959 0.523776 4.76927 0 0 0 24.2667 -4.92215 0.181978 0.0772571 24.2276 0.0331161 0.00596866 
1997 1 5.46969 0.643568 9.55667 0 0 -1 23.9533 -4.89223 -0.137929 0.0186189 23.934 0.0190243 0.000346662 
242 1 9.39597 8.4735 8.90821 -1 0 0 18.5118 -4.01959 1.46174 -0.466972 16.1571 2.13668 0.218063 
2041 1 9.90778 7.80104 5.52424 0 0 0 31.2874 -5.57504 -0.433406 -0.136114 31.081 0.187841 0.0185269 
1656 1 11.5815 9.5475 7.72479 0 0 0 31.9457 -5.60507 0.711955 0.148236 31.4169 0.50688 0.0219738 
2326 1 7.049 9.48742 7.06315 0 0 -1 33.4554 -5.75665 0.554224 0.096466 33.139 0.307164 0.00930569 
3451 1 10.3234 3.20651 3.15822 0 1 0 39.3255 -6.2314 0.121248 -0.693154 38.8303 0.014701 0.480463 
1171 1 10.7876 7.2478 2.41874 0 0 0 25.4276 -5.02186 0.265391 0.371689 25.2191 0.0704326 0.138153 
2 1 10.7589 6.53755 3.2052 -1 0 0 36.4924 -5.88256 -1.03219 -0.906847 34.6046 1.06541 0.822372 
2931 1 10.6271 4.17092 2.95808 0 1 0 37.5513 -6.11232 -0.27748 -0.337408 37.3604 0.0769954 0.113844 
3329 1 12.7299 9.40898 6.18792 0 0 0 22.6762 -4.7277 -0.414984 0.390901 22.3512 0.172211 0.152803 
1259 1 11.0268 9.36149 2.0187 0 0 0 27.0495 -5.1894 -0.00352935 -0.34593 26.9299 1.24563e-05 0.119668 
74 1 11.9546 5.57215 8.56393 -1 0 -1 42.6663 -6.52756 -0.219696 0.0945928 42.6091 0.0482662 0.00894779 
1955 1 10.5474 9.36523 7.38125 0 0 0 16.8343 -4.06978 -0.202803 -0.479656 16.5631 0.0411289 0.23007 
1875 1 0.909555 1.00727 1.8063 0 1 1 23.7136 -4.85308 0.384291 0.116357 23.5524 0.147679 0.013539 
3905 2 0.955061 1.43099 2.60616 1 1 0 26.0609 -5.09128 0.370928 0.0462936 25.9212 0.137588 0.0021431 
2405 1 1.83489 1.52694 2.24151 0 1 0 25.8859 -5.08279 0.134505 0.181618 25.8348 0.0180916 0.0329852 
27 1 1.38909 0.651357 2.6809 0 1 0 24.5498 -4.94628 0.229702 0.177067 24.4657 0.052763 0.0313528 
2689 1 1.73988 1.32769 3.28516 1 0 0 25.9161 -5.08742 0.16565 0.0826723 25.8818 0.0274398 0.00683471 
3459 2 2.56265 1.3387 2.78198 0 0 0 25.1646 -5.01204 0.0913006 0.188861 25.1206 0.0083358 0.0356683 
1032 1 2.50803 0.649865 2.28708 0 0 0 23.6086 -4.85004 0.0966572 0.276431 23.5229 0.00934262 0.0764142 
820 1 3.44954 1.28789 2.71133 0 1 0 25.561 -5.04614 0.0504867 0.308156 25.4635 0.0025489 0.0949603 
2197 1 11.6227 8.64963 0.0662825 0 0 2 16.6268 -4.04748 -0.0819011 0.487885 16.3821 0.00670778 0.238032 
1863 1 4.44623 0.848587 1.79609 0 1 0 24.3852 -4.93184 -0.242706 -0.0565868 24.323 0.0589064 0.00320207 
1231 1 4.52235 0.221034 2.69562 0 0 1 22.151 -4.7031 -0.150442 0.0959695 22.1191 0.0226328 0.00921014 
3639 2 4.33742 1.17296 2.89303 0 0 1 24.651 -4.9623 -0.0629201 0.15046 24.6244 0.00395893 0.0226382 
2256 1 6.77353 6.45732 6.73463 0 0 0 46.093 -6.67237 -1.05645 0.675577 44.5205 1.11608 0.456405 
720 1 6.57093 4.55104 6.89443 0 0 0 42.0756 -6.47541 -0.351826 -0.144649 41.9309 0.123782 0.0209233 
279 1 5.7148 3.11319 7.7842 0 0 0 33.0809 -5.74563 -0.254667 0.0618449 33.0122 0.0648551 0.00382479 
3760 2 7.49981 5.95207 2.87369 0 0 0 65.1861 -7.79479 -0.934409 -1.88527 60.7588 0.873121 3.55423 
1188 1 5.97893 0.559391 8.68053 0 0 0 23.8239 -4.88066 -0.0264717 0.0483797 23.8208 0.000700753 0.0023406 
2911 1 5.86117 2.3284 1.06108 0 1 1 29.4863 -5.42736 -0.168633 -0.0396057 29.4563 0.028437 0.00156861 
3606 2 7.37985 4.12323 6.90845 0 0 -1 44.5729 -6.45815 -1.6684 -0.285719 41.7077 2.78355 0.0816356 
1590 1 6.26452 7.23101 7.30077 0 0 0 52.7097 -7.22407 -0.72285 -0.00374253 52.1872 0.522512 1.40065e-05 
2680 1 7.423 1.09591 7.38681 0 0 0 24.5591 -4.94781 -0.247999 -0.129686 24.4808 0.0615033 0.0168185 
1587 1 8.78471 6.29769 0.119265 0 0 1 44.921 -6.60537 -0.796526 -0.809693 43.6309 0.634454 0.655602 
3517 2 11.375 7.16757 3.37 -1 -1 0 26.1986 -4.5379 -0.163626 -2.36204 20.5926 0.0267733 5.57924 
1695 1 10.7703 8.12311 0.386341 0 0 1 32.655 -5.50693 -0.369977 -1.48046 30.3263 0.136883 2.19175 
2519 1 9.47956 7.06643 4.899 0 -1 0 44.086 -6.63781 0.133971 -0.0863887 44.0606 0.0179483 0.007463 
2592 1 11.1851 5.64091 1.01818 0 0 0 52.8918 -7.27143 0.00351661 -0.134432 52.8737 1.23666e-05 0.0180719 
234 1 10.6687 5.72077 1.99507 -1 0 1 37.3141 -6.1068 -0.0752857 0.124572 37.293 0.00566793 0.0155181 
3803 2 8.09399 0.359419 7.32827 0 2 0 23.81 -4.85087 -0.515268 -0.116271 23.531 0.265501 0.0135189 
2539 1 12.4676 6.97306 1.85639 0 0 0 56.6808 -7.46703 0.841338 -0.465248 55.7565 0.707849 0.216456 
3237 1 13.5977 9.28534 4.83876 0 0 -1 31.8505 -5.58992 -0.636006 -0.445871 31.2472 0.404504 0.198801 
1363 1 8.26949 0.115198 1.53444 0 1 0 29.2127 -5.32906 -0.88552 0.172144 28.3989 0.784146 0.0296336 
427 1 2.09737 2.43183 1.79092 0 1 0 30.0495 -5.4788 0.071022 0.165147 30.0172 0.00504413 0.0272736 
699 1 1.23506 2.20945 2.90208 0 0 1 28.4565 -5.32469 0.269 0.178487 28.3523 0.0723609 0.0318576 
1026 1 1.73536 3.10904 2.44945 0 0 0 30.9312 -5.55554 0.192879 0.173133 30.864 0.0372024 0.029975 
354 1 2.85745 1.86637 2.06232 0 1 0 28.2016 -5.31001 -0.0713331 -0.0171426 28.1962 0.00508841 0.000293869 
4141 2 3.57244 2.544 2.11983 0 2 0 29.7986 -5.45856 -0.0318179 0.0408443 29.7959 0.00101238 0.00166825 
2060 1 2.30029 2.23955 2.94811 0 0 0 28.9654 -5.38169 -0.0100873 0.0527155 28.9625 0.000101753 0.00277892 
753 1 2.92024 3.10356 2.34792 0 0 1 31.1812 -5.58331 0.0874411 -0.0145757 31.1734 0.00764595 0.000212451 
2422 1 3.43389 2.36359 3.05498 0 1 1 30.3598 -5.50825 -0.119701 0.0680855 30.3408 0.0143283 0.00463563 
1250 1 4.96765 1.97721 1.81895 0 1 0 27.6574 -5.25667 -0.113048 0.109812 27.6325 0.0127799 0.0120586 
706 1 4.34899 1.97136 2.69046 0 0 0 27.9706 -5.28393 -0.179632 0.1357 27.9199 0.0322676 0.0184144 
164 1 10.071 8.86202 1.90972 0 0 1 19.0577 -3.9522 -1.81374 0.384886 15.6199 3.28964 0.148137 
3921 2 4.74735 2.6759 2.37145 0 1 -1 29.8734 -5.45475 -0.339946 0.0590898 29.7543 0.115564 0.00349161 
3124 1 5.35626 2.94812 1.80205 0 0 1 31.0761 -5.57213 -0.165564 -0.0079182 31.0486 0.0274114 6.26979e-05 
3991 2 6.88686 6.44639 4.6406 0 1 1 32.8306 -5.68873 0.458248 0.508853 32.3617 0.209991 0.258931 
3029 1 6.90051 3.72174 3.59248 0 0 0 34.1903 -5.83232 -0.381208 0.170496 34.0159 0.145319 0.0290688 
2196 1 5.93893 2.21679 4.40091 0 0 1 29.5084 -5.42648 -0.133352 0.2096 29.4467 0.0177828 0.0439321 
16 1 5.10481 0.312102 6.25622 0 0 0 22.8655 -4.77863 -0.132802 0.112052 22.8353 0.0176363 0.0125557 
3969 2 7.11514 2.37293 8.78628 0 0 0 29.1477 -5.38369 -0.388159 0.113648 28.9841 0.150668 0.0129158 
1094 1 6.74747 2.81579 0.742304 0 0 0 30.6455 -5.52457 -0.323313 0.141664 30.5209 0.104531 0.0200687 
1844 1 8.18744 6.18332 3.38126 0 0 1 46.8194 -6.69052 0.110132 1.42975 44.7631 0.012129 2.04418 
2739 1 6.79748 1.04112 2.09967 0 0 1 26.7268 -5.14661 -0.486851 0.0466518 26.4876 0.237024 0.00217639 
2723 1 7.89787 2.70909 8.76018 0 0 0 31.6424 -5.61127 -0.38902 -0.0684542 31.4864 0.151336 0.00468598 
1184 1 12.2352 7.06919 6.25556 0 0 0 35.3328 -5.93147 0.386108 0.0363359 35.1824 0.149079 0.0013203 
3734 2 10.3105 7.16662 9.62697 -1 -1 0 39.1989 -6.21852 -0.285857 0.668752 38.6699 0.0817143 0.447229 
1829 1 11.108 9.28013 5.54647 0 0 0 28.542 -5.29182 0.209117 -0.703455 28.0034 0.0437301 0.494849 
3756 2 12.9327 9.1821 3.52281 0 0 1 27.7216 -5.0479 1.35238 0.641356 25.4813 1.82894 0.411338 
2762 1 9.40541 0.411963 5.33559 0 1 -1 25.0435 -4.99342 -0.192982 -0.268464 24.9342 0.0372422 0.072073 
1689 1 9.17582 0.470147 8.33583 0 0 0 27.7632 -5.23535 -0.590304 0.0765279 27.4089 0.348459 0.00585652 
1241 1 10.7269 9.2368 4.4902 0 0 1 23.5526 -4.83612 -0.159829 0.372903 23.388 0.0255452 0.139057 
2427 1 2.29322 3.99839 2.57882 0 1 0 34.9757 -5.9133 0.092905 -0.00597713 34.9671 0.00863134 3.57261e-05 
4235 2 3.58332 3.1373 3.27047 1 0 -1 33.2374 -5.76217 -0.124216 0.139196 33.2026 0.0154296 0.0193755 
649 1 3.00595 4.41821 1.24391 0 0 1 36.246 -5.99364 -0.103929 -0.558129 35.9237 0.0108012 0.311508 
3508 2 3.05335 3.91216 2.07569 0 1 1 36.5331 -6.04308 0.119263 0.00479592 36.5188 0.0142236 2.30008e-05 
1639 1 3.71865 4.38818 2.14643 0 0 0 40.5969 -6.3679 -0.18956 0.103998 40.5501 0.0359331 0.0108155 
1277 1 3.24078 3.91769 2.98726 0 0 -1 37.6955 -6.13765 -0.144318 0.0623655 37.6708 0.0208277 0.00388946 
1536 1 3.93143 3.17923 2.52171 0 0 0 33.1541 -5.74784 -0.292752 0.175237 33.0377 0.0857037 0.0307081 
3869 2 4.38764 3.99392 2.73569 0 0 -1 34.8091 -5.89878 -0.0802028 -0.0834909 34.7957 0.0064325 0.00697073 
533 1 4.61582 3.75178 1.91456 0 0 0 36.5722 -6.04172 -0.191864 0.181551 36.5024 0.0368117 0.0329608 
1158 1 5.12643 3.38009 2.7873 0 0 0 32.8707 -5.72522 -0.301558 0.0407427 32.7781 0.0909374 0.00165996 
1035 1 5.24397 4.35079 2.57993 0 0 1 34.2561 -5.8441 -0.311696 0.0734791 34.1535 0.0971541 0.00539918 
2936 1 8.13913 4.6773 4.72491 0 0 1 48.3876 -6.93554 -0.484822 -0.225502 48.1017 0.235052 0.0508513 
1371 1 5.48014 3.16152 6.17448 0 1 0 33.3448 -5.76815 -0.26891 -0.0299162 33.2716 0.0723128 0.00089498 
1880 1 8.76829 7.7998 5.48499 0 0 0 46.3437 -6.67057 -0.528769 -1.25201 44.4966 0.279597 1.56754 
2789 1 8.65163 7.16944 8.74246 0 0 -1 33.9534 -5.75619 -0.762349 -0.488439 33.1337 0.581177 0.238573 
642 1 6.85707 1.7348 4.49186 0 0 0 29.3877 -5.39951 -0.446359 -0.18367 29.1547 0.199236 0.0337347 
3800 2 7.57056 5.39721 4.51582 0 0 -1 49.3623 -7.02052 0.0072736 0.273054 49.2877 5.29053e-05 0.0745587 
1316 1 9.49771 1.3938 0.202067 0 1 0 27.5078 -5.23212 -0.363016 0.0315533 27.375 0.13178 0.000995612 
2155 1 6.383 0.418012 7.45282 0 0 1 23.6516 -4.85237 -0.232329 -0.228275 23.5455 0.0539769 0.0521095 
2234 1 7.50176 2.40248 2.18701 0 0 1 30.4349 -5.50038 -0.404379 0.131102 30.2542 0.163523 0.0171876 
2661 1 8.02658 3.72699 6.43353 0 0 1 37.3735 -6.10486 -0.30495 -0.105494 37.2694 0.0929945 0.011129 
2167 1 8.84567 1.60219 7.98999 0 0 0 30.1733 -5.45561 -0.63971 -0.0184541 29.7637 0.409229 0.000340554 
3848 2 9.73606 3.63349 5.50459 0 0 -1 40.3989 -6.30289 -0.819194 -0.037701 39.7264 0.671079 0.00142137 
1835 1 8.35033 1.61988 0.836309 0 1 0 30.5329 -5.51589 -0.261103 0.199265 30.4251 0.0681746 0.0397066 
3135 1 8.99628 2.44008 0.423229 0 0 1 32.4404 -5.62827 -0.219238 -0.845519 31.6774 0.0480653 0.714902 
1849 1 9.91541 6.89946 3.76844 0 0 0 32.3777 -5.6335 -0.666099 -0.444713 31.7363 0.443688 0.197769 
3100 1 10.0526 4.82896 4.26468 0 0 -1 47.7581 -6.90922 -0.0854868 -0.116387 47.7373 0.00730799 0.013546 
2444 1 9.5149 5.68716 2.3781 0 0 0 53.0428 -7.04217 -1.75534 -0.607726 49.5922 3.08123 0.369331 
2120 1 9.44451 1.8536 2.3939 0 0 0 27.6374 -5.25314 -0.198688 -0.0492631 27.5955 0.0394768 0.00242685 
1921 1 6.76167 9.63648 6.02066 0 0 0 26.1119 -5.04177 0.623451 -0.551105 25.4195 0.388691 0.303717 
3411 1 9.94902 1.29139 5.73507 0 1 0 27.6168 -5.13804 -1.03511 -0.381952 26.3995 1.07146 0.145887 
4053 2 2.32812 4.36571 1.78478 0 0 -1 41.412 -6.37823 -0.462753 -0.718343 40.6818 0.21414 0.516017 
1018 1 11.5793 6.63737 0.847899 0 0 -1 47.303 -6.83347 0.536812 0.564385 46.6963 0.288167 0.31853 
717 1 10.9446 4.43801 3.97691 -1 0 1 49.749 -7.04506 -0.301696 0.158318 49.6329 0.0910207 0.0250647 
1083 1 3.95552 4.70441 3.1764 0 0 0 41.3299 -6.42379 -0.254138 0.0135278 41.2651 0.0645861 0.000183 
662 1 2.89021 4.96791 2.09672 0 0 1 46.8968 -6.80065 -0.682341 0.4271 46.2488 0.465589 0.182415 
635 1 2.68964 4.82972 3.13349 0 0 0 48.2792 -6.92627 -0.274195 0.480374 47.9733 0.0751831 0.230759 
3481 2 11.3247 9.25305 9.17601 0 0 0 23.2259 -4.64387 -1.28855 0.00627256 21.5655 1.66037 3.9345e-05 
1628 1 3.40542 5.56091 2.99777 0 0 0 55.2718 -7.38256 -0.196744 0.854893 54.5022 0.0387082 0.730841 