ITEM: TIMESTEP
3300000
ITEM: NUMBER OF ATOMS
4320
ITEM: BOX BOUNDS xy xz yz pp pp pp 
0 28.965 9.655
0 19.31 0
0 9.655 0
ITEM: ATOMS id type x y z ix iy iz flow_delta_displacement grad_box_change 
2197 1 3.42602 1.70007 2.83062 0 1 0 0.000365984 0 
1458 1 3.6117 1.39881 0.152872 0 0 0 -0.000689528 0 
1160 1 4.45988 1.67931 1.45241 0 0 0 -0.000751518 0 
235 1 1.9683 0.759709 4.092 0 0 0 -0.000565897 0 
580 1 3.47782 1.70458 3.93551 0 0 0 -0.000850305 0 
1062 1 1.63991 1.05198 3.03406 0 0 0 -0.000797673 0 
3865 2 3.61787 1.83729 0.91336 0 0 0 -0.00109456 0 
3946 2 4.85641 2.51821 1.03251 0 1 0 0.000372596 0 
906 1 5.60349 3.82553 3.19992 0 1 0 0.000476591 0 
1676 1 2.52343 1.75606 4.35699 0 0 0 -0.000744711 0 
1696 1 6.95207 4.72244 4.21303 0 0 0 -0.000107474 0 
4116 2 1.50057 1.64493 2.37263 1 0 -1 -0.00016917 0 
664 1 2.0706 3.0284 1.27391 0 0 0 -0.000739458 0 
1295 1 2.63029 0.226068 1.08871 0 1 0 0.000103026 0 
1472 1 6.33094 3.934 2.49427 0 0 0 -0.000591306 0 
722 1 1.8845 1.31562 0.438638 0 1 0 0.000676782 0 
3756 2 1.95792 0.117734 1.66889 0 0 1 -0.00131038 1 
1855 1 4.66965 0.56109 1.68407 0 1 1 0.00049405 0 
1351 1 4.06261 2.3697 2.36801 0 1 0 0.000491265 0 
2946 1 4.61667 1.0298 0.513444 0 0 0 -0.000789088 0 
987 1 2.02481 2.29465 0.526638 0 0 0 -0.000721373 0 
3587 2 7.19036 4.77613 1.14524 0 0 0 -0.000464766 0 
548 1 1.62027 2.31095 4.1128 0 0 0 -0.000726337 0 
1870 1 5.26715 2.6284 0.260869 0 1 1 0.000204964 0 
612 1 3.24328 4.67698 1.45338 0 0 1 -0.000251622 0 
1858 1 4.56415 2.87745 3.82262 0 1 0 0.000621751 0 
1615 1 4.45867 2.02073 0.36073 0 0 1 -0.000915712 0 
2523 1 3.54726 4.52509 3.3928 0 0 0 -0.000510614 0 
1636 1 2.59302 4.36501 0.126574 0 0 1 -0.000557306 0 
3665 2 4.78115 1.24363 3.78413 0 1 0 0.000225374 0 
568 1 1.86191 1.85508 1.45558 0 0 0 -0.00103032 0 
1538 1 5.03868 1.01582 2.95008 0 0 0 -0.000762677 0 
566 1 3.35651 1.91782 1.78184 0 0 0 -0.000644428 0 
537 1 4.24177 3.32517 2.08026 0 0 0 -0.000374112 0 
1504 1 4.97786 3.97391 4.0554 0 0 0 -0.0005237 0 
124 1 1.72481 2.14797 3.11984 0 0 0 -0.000762435 0 
508 1 3.4158 3.66013 2.72577 0 0 0 -0.000391473 0 
889 1 4.01848 0.72487 4.37924 0 1 0 0.000114995 0 
2098 1 5.34794 4.3578 1.18734 0 0 1 -0.000388826 0 
1950 1 4.09572 0.910985 3.43089 0 0 0 -0.000852974 0 
3602 2 2.4588 0.794648 2.59501 0 0 0 -0.000918484 0 
1184 1 3.58245 4.38841 4.53495 0 0 0 -0.000790505 0 
1359 1 2.75442 0.826186 0.0885256 0 1 1 0.00033618 0 
4129 2 5.66501 4.54834 2.6802 1 0 1 -0.000697487 0 
2513 1 5.36203 1.72964 0.88201 0 0 0 -0.000844993 0 
3468 2 5.18205 1.68414 0.08409 -1 0 1 -0.000718879 0 
3884 2 1.90861 1.57532 3.80834 0 0 1 -0.000790079 0 
567 1 3.32549 3.48467 0.0987722 0 0 0 -0.000472662 0 
4122 2 3.30632 1.14865 4.59875 0 0 0 -0.000956559 0 
1194 1 2.5718 1.28723 3.38909 0 1 0 0.000384378 0 
1049 1 5.63679 2.93405 4.49739 0 0 0 -0.000552564 0 
1573 1 3.66348 2.69373 3.27613 0 0 0 -0.00063807 0 
635 1 4.01938 4.40809 2.09701 0 0 1 -0.000240037 0 
1519 1 5.41667 1.99107 2.86999 0 0 0 -0.000870215 0 
2076 1 5.88561 3.05063 2.44878 0 0 1 -0.000434891 0 
1425 1 5.80802 2.84881 3.46186 0 1 0 0.000744371 0 
1721 1 4.03784 2.59152 1.373 0 1 0 0.000443125 0 
1271 1 3.91498 3.70494 1.15202 0 1 0 0.00056469 0 
1040 1 1.40645 0.742796 1.14811 0 0 0 -0.000562773 0 
4267 2 3.53202 3.55892 4.68654 1 0 1 -0.000378415 0 
1682 1 5.3536 4.80715 3.42118 0 0 0 -0.000485476 0 
2421 1 4.87354 2.94261 2.87523 0 0 0 -0.000528979 0 
386 1 2.32225 0.254237 3.28271 0 1 0 0.000617273 0 
1007 1 0.578507 0.717879 3.35628 0 0 0 -0.000652214 0 
655 1 2.47002 4.05462 3.05224 0 0 1 -0.000398571 0 
1191 1 1.85701 3.14017 3.54603 0 0 0 -0.000624963 0 
3707 2 5.61203 4.48337 0.281014 0 0 0 -0.000517125 0 
1678 1 5.18121 3.72696 2.21896 0 0 1 -0.00056219 0 
1798 1 1.33516 0.412753 0.164193 0 1 0 0.000470812 0 
2108 1 3.81663 3.57869 3.82148 0 0 0 -0.000608571 0 
952 1 6.08022 3.57825 1.54863 0 0 0 -0.000454921 0 
3964 2 4.62366 4.06793 1.53751 0 1 0 0.000747774 0 
767 1 3.71548 0.938742 1.1642 0 1 0 0.000431274 0 
1506 1 4.66051 3.99204 0.502731 0 0 0 -0.000823651 0 
4263 2 3.14926 4.54383 2.6742 1 0 0 -0.000305043 0 
3856 2 2.17347 1.02708 1.24584 0 0 0 -0.000603141 0 
1117 1 2.23299 3.34837 0.224831 0 0 1 -0.000618491 0 
1785 1 4.14188 1.16537 2.26266 0 1 0 0.000376565 0 
2164 1 1.1231 1.33203 3.95524 0 0 1 -0.00074764 0 
1644 1 6.20866 3.80796 4.11836 0 0 0 -0.000358791 0 
1906 1 3.03674 0.555672 4.09393 0 1 0 0.000231829 0 
1098 1 5.60088 3.6371 0.538092 0 0 1 -0.00078079 0 
4041 2 4.7292 1.76844 2.36545 0 1 0 0.000386596 0 
505 1 0.919055 1.59483 1.66004 0 0 0 -0.000494611 0 
1913 1 0.927133 0.20375 4.30455 0 1 0 0.000526097 0 
1622 1 6.34768 4.5432 3.40411 0 0 0 -0.000543398 0 
1071 1 2.86265 3.32273 3.8098 0 0 -1 -0.000605877 0 
1535 1 4.51501 3.94887 3.06208 0 0 0 -0.000421447 0 
2132 1 5.26511 2.10067 3.86465 0 0 0 -0.000506991 0 
1081 1 2.46595 2.97266 2.69253 0 0 1 -0.000807262 0 
30 1 2.6907 4.29002 4.06001 0 0 0 -0.000848129 0 
744 1 3.68367 4.49233 0.36127 0 1 0 0.000530003 0 
2101 1 5.02713 2.45937 1.94522 0 0 1 -0.000661964 0 
991 1 4.46832 1.92189 3.19692 0 0 0 -0.0006343 0 
575 1 1.38234 0.00899331 2.76184 0 0 0 -0.000545796 0 
2338 1 4.429 0.14258 2.71841 0 1 0 0.000447515 0 
1818 1 3.64739 0.181618 1.95929 0 1 1 0.000390465 0 
1147 1 2.82997 0.992111 1.86055 0 0 1 -0.00075656 0 
1446 1 1.53308 2.58933 2.17104 0 0 0 -0.000667801 0 
860 1 2.35923 1.78952 2.40577 0 1 1 0.000559795 0 
878 1 4.88891 0.268899 3.87257 0 1 0 0.000543664 0 
1153 1 4.37303 1.78042 4.36939 0 0 0 -0.00060944 0 
3918 2 0.479598 0.508869 0.337806 0 1 0 0.000708163 0 
994 1 2.40861 3.86986 1.97791 0 0 0 -0.000568558 0 
1484 1 2.80079 1.51873 0.905821 0 0 0 -0.00054406 0 
3533 2 2.59996 2.32144 1.62159 0 1 0 0.000657317 0 
1103 1 5.02531 0.961062 4.74673 0 0 0 -0.00104391 0 
1437 1 4.90397 3.31397 1.23201 0 0 0 -0.000569487 0 
1647 1 3.53606 2.63536 4.37075 0 0 0 -0.000624831 0 
814 1 2.701 2.35216 3.49514 0 1 0 0.000446703 0 
555 1 0.698622 0.757728 2.28247 0 0 0 -0.000446437 0 
1051 1 2.84604 3.71653 1.0256 0 0 0 -0.000623667 0 
3784 2 1.34772 0.377755 3.5518 0 1 0 0.000511868 0 
1462 1 3.21019 2.52779 0.666432 0 0 0 -0.000821246 0 
3590 2 3.14107 2.45936 2.57212 0 0 -1 -0.00100433 0 
1511 1 3.17185 2.99535 1.82216 0 0 0 -0.000686128 0 
1357 1 1.81823 0.914754 2.05491 0 1 1 0.000293693 0 
1651 1 3.30559 0.603 2.90411 0 0 1 -0.000493011 0 
1965 1 5.8288 2.58051 1.3052 0 0 0 -0.000537142 0 
3703 2 3.29047 3.85342 1.79239 0 0 0 -0.0004843 0 
1470 1 6.35169 4.38612 0.807573 0 0 0 -0.000734961 0 
1072 1 6.03409 4.78227 1.80912 0 0 0 -0.000370426 0 
1539 1 4.25284 3.01425 0.487678 0 0 0 -0.000836042 0 
3460 2 4.84546 2.66581 4.66706 -1 0 0 -0.000736404 0 
1455 1 5.42126 1.44309 1.9516 0 0 0 -0.000661459 0 
1621 1 5.64424 4.69329 4.44377 0 0 0 -0.000267389 0 
1166 1 0.795684 1.42145 0.498518 0 0 1 -0.000570973 0 
1856 1 3.74738 0.272352 0.194354 0 1 1 0.000306445 0 
870 1 0.380695 0.720684 1.19922 0 1 1 0.000428186 0 
1572 1 5.03811 4.74916 2.114 0 0 1 -0.000290115 0 
1030 1 4.38675 3.44147 4.81168 0 0 0 -0.00066913 0 
1016 1 3.27217 3.71486 8.11582 0 0 -1 -0.000741299 0 
538 1 3.15244 0.469725 6.37242 0 0 -1 -0.000627457 0 
2417 1 6.00159 2.72122 6.45536 0 1 0 0.000594934 0 
1764 1 4.26647 3.46369 9.16267 0 1 -1 0.000976614 0 
1626 1 4.56751 1.9548 8.10249 0 0 0 -0.000791034 0 
2135 1 2.09289 3.09419 6.69684 0 0 0 -0.00069537 0 
3634 2 2.80881 1.91566 6.62863 0 0 0 -0.00075465 0 
2072 1 1.21062 0.303927 7.80997 0 0 0 -0.000637405 0 
4076 2 4.27502 0.920985 9.31458 0 1 1 0.000235349 0 
4130 2 5.4775 3.98693 7.78928 0 0 -1 -0.000152107 0 
628 1 4.6667 4.55513 5.02436 0 0 0 -0.000707633 0 
1617 1 2.98065 2.63385 8.49909 0 0 0 -0.0006856 0 
1187 1 1.72729 1.16398 5.89003 0 0 0 -0.000465859 0 
1091 1 4.03247 4.20465 7.63569 0 0 0 -0.000561186 0 
3796 2 6.28733 3.90949 8.79761 0 1 -1 0.000491883 0 
517 1 3.29747 4.26065 8.99992 0 0 0 -0.000385889 0 
1085 1 2.33708 2.58687 4.89415 0 0 0 -0.000744524 0 
227 1 1.61592 2.16371 8.31036 0 0 0 -0.000580676 0 
1013 1 2.45599 4.82354 8.83723 0 0 -1 -0.000190335 0 
3723 2 3.48162 3.33128 8.82644 0 0 0 -0.000374038 0 
3658 2 0.764341 0.325583 8.5836 0 1 -1 0.000548372 0 
1429 1 3.09238 4.71739 7.96901 0 0 -1 -0.000385889 0 
1318 1 1.12571 1.1596 8.4014 0 1 0 0.000478565 0 
1646 1 5.15779 2.89794 5.52712 0 0 0 -0.000438166 0 
4101 2 4.48267 2.4075 6.00566 0 0 -1 -0.000482929 0 
2053 1 6.24125 3.45724 5.65823 0 0 0 -0.000757084 0 
3713 2 1.85874 2.38836 5.75641 0 0 0 -0.000140874 0 
1606 1 2.0803 0.304793 6.33704 0 0 0 -0.000714378 0 
970 1 2.7239 3.80755 4.99387 0 0 0 -0.000636609 0 
3793 2 2.78327 2.75275 9.463 0 1 -1 0.000967425 0 
1665 1 4.19524 2.50497 5.18782 0 0 0 -0.000510519 0 
1001 1 3.98634 2.88987 8.30563 0 0 -1 -0.000702875 0 
3598 2 1.87645 0.3902 7.25009 0 0 0 -0.000842513 0 
2123 1 5.42374 1.9274 6.16229 0 0 0 -0.000892609 0 
231 1 2.99581 3.90451 7.12091 0 0 0 -0.000610236 0 
2196 1 5.59512 4.77514 5.57392 0 1 -1 0.000373988 0 
86 1 3.03373 4.6582 6.40337 0 0 0 -0.000323333 0 
1628 1 5.7873 3.46187 7.22541 0 0 0 -0.000363692 0 
56 1 0.617006 0.907466 9.25022 0 0 -1 -0.000652968 0 
1654 1 4.25432 1.45486 5.32332 0 0 0 -0.000548508 0 
1361 1 5.73339 3.3507 8.276 0 1 0 0.000250215 0 
1865 1 2.65848 0.340859 8.79282 0 1 0 0.000478469 0 
1128 1 1.63331 0.264152 5.15467 0 0 1 -0.000744337 0 
1561 1 3.66287 2.55262 9.30117 0 0 -1 -0.000758652 0 
2232 1 5.49327 3.85672 4.99283 0 1 0 0.000380068 0 
2340 1 5.81018 2.10307 9.18197 0 1 0 0.000343471 0 
3597 2 4.0181 4.05529 8.5522 0 0 -1 -0.00050196 0 
954 1 3.09975 2.75254 6.81517 0 0 -1 -0.000584121 0 
1640 1 5.37477 4.03388 9.23837 0 0 0 -0.000709433 0 
1630 1 2.57977 1.69185 8.3781 0 0 0 -0.000790106 0 
186 1 2.51225 3.15548 7.76184 0 0 0 -0.000617656 0 
3978 2 3.98589 1.26151 8.13114 0 1 0 0.000330776 0 
1499 1 3.71343 1.6433 8.80383 0 0 0 -0.000670826 0 
974 1 5.01175 2.76371 8.76755 0 0 -1 -0.000878032 0 
1301 1 2.82459 1.31256 5.94279 0 1 -1 0.000386898 0 
2610 1 6.55515 3.89357 7.77903 0 0 0 -0.000535581 0 
617 1 4.00467 3.18744 6.15311 0 0 0 -0.000343402 0 
1449 1 4.23814 0.631309 6.48314 0 0 0 -0.000653751 0 
3123 1 3.24352 3.04282 5.36497 1 0 0 -0.000682998 0 
1901 1 4.72928 0.93743 8.42609 0 1 0 0.000336844 0 
1396 1 4.39286 1.22325 7.32955 0 1 0 0.000429695 0 
1711 1 6.91722 4.53433 8.87305 0 1 -1 0.000385652 0 
3747 2 2.56172 4.63346 7.15019 0 0 0 -0.000997264 0 
2385 1 4.1515 2.29848 7.00115 0 1 0 0.000350169 0 
4082 2 5.74784 2.59253 7.28115 0 1 1 0.000602839 0 
3577 2 3.37151 2.88149 7.70494 0 0 -1 -0.000633051 0 
1175 1 3.49267 1.45295 6.86166 0 0 0 -0.000648944 0 
1853 1 1.94335 1.9941 6.5394 0 1 1 0.000420747 0 
1714 1 3.62041 0.600866 8.83772 0 1 -1 0.000362509 0 
1797 1 4.41262 0.285424 5.25292 0 1 0 0.00055637 0 
1114 1 0.789919 0.935615 5.15757 0 0 0 -0.000753105 0 
3849 2 4.49241 2.68441 9.4293 0 0 0 -0.000656614 0 
1836 1 3.27413 0.78744 7.87322 0 1 0 0.000370812 0 
1691 1 4.86476 2.92539 7.6705 0 0 0 -0.000792697 0 
1963 1 6.46402 4.22038 5.01231 0 0 0 -0.000669169 0 
1183 1 2.575 3.49772 8.88491 0 0 0 -0.00045843 0 
1569 1 2.71758 0.0965911 7.29015 0 0 0 -0.000630356 0 
1848 1 4.78752 3.88512 5.82632 0 1 0 0.000545045 0 
1021 1 5.8732 4.58382 8.41525 0 0 0 -0.0005615 0 
1178 1 3.91169 4.24679 6.55358 0 0 0 -0.000367989 0 
1057 1 2.00607 3.32584 5.60865 0 0 0 -0.000719394 0 
1349 1 3.47805 0.773134 5.2875 0 1 0 0.000494771 0 
1089 1 2.17696 4.12186 8.0649 0 0 0 -0.000749445 0 
4175 2 6.61707 4.3613 5.87592 0 1 0 0.000587625 0 
784 1 5.14902 1.98102 7.1446 0 1 0 0.000430429 0 
3757 2 2.92922 1.15982 8.89755 0 0 0 -0.000775291 0 
961 1 4.78574 4.02672 6.98651 0 0 0 -0.000393842 0 
1683 1 3.2566 1.79399 5.1166 0 0 0 -0.000633285 0 
1199 1 2.49189 0.96559 5.02356 0 1 0 0.000483286 0 
2057 1 4.51065 1.59163 6.36452 0 0 0 -0.000641901 0 
1078 1 2.68572 2.39252 5.92448 0 0 0 -0.00075377 0 
968 1 1.18692 1.83481 9.23552 0 0 0 -0.000796725 0 
2023 1 5.89112 3.14697 9.22084 0 0 -1 -0.000827141 0 
1514 1 3.97942 3.32091 7.14556 0 0 -1 -0.000673075 0 
670 1 3.73829 3.97789 5.47604 0 0 0 -0.000733743 0 
1453 1 2.45414 2.14864 7.45781 0 0 -1 -0.000620081 0 
1591 1 1.42249 2.56621 7.40726 0 0 0 -0.000483897 0 
3518 2 0.532099 0.122004 7.30428 0 1 0 0.000312513 0 
1660 1 4.77709 3.78353 8.33747 0 0 0 -0.000419884 0 
624 1 2.71638 1.88323 9.47681 0 0 0 -0.000732927 0 
3016 1 2.87521 3.61032 6.17679 1 0 0 -0.000515185 0 
1904 1 5.19548 1.89928 5.043 0 1 0 0.000469231 0 
1242 1 2.03172 2.58567 9.13757 0 1 -1 0.000490856 0 
4064 2 3.56174 0.59842 7.06575 0 1 0 0.000530278 0 
1529 1 5.6815 4.09612 6.37416 0 0 0 -0.000487902 0 
704 1 2.15659 0.820802 7.97549 0 0 0 -0.000580437 0 
948 1 1.17657 0.606265 6.81698 0 1 0 0.000347791 0 
899 1 2.38798 1.03681 6.95032 0 1 0 0.00050848 0 
2044 1 5.08467 0.965809 5.77835 0 0 0 -0.000747327 0 
1531 1 4.73371 1.79886 9.07874 0 0 0 -0.000545817 0 
4241 2 1.18426 0.461927 5.94954 1 0 -1 -0.000709932 0 
1435 1 3.69397 2.1555 6.05251 0 0 0 -0.000658532 0 
1634 1 5.96895 4.52016 7.28771 0 0 0 -0.000665584 0 
3868 2 2.92773 1.47139 7.50889 0 0 -1 -0.000601783 0 
1050 1 3.53355 2.0125 7.84041 0 0 -1 -0.000607029 0 
1428 1 4.35056 4.5801 9.23738 0 0 -1 -0.000444617 0 
1146 1 1.5597 1.40826 7.42368 0 0 0 -0.000606744 0 
659 1 0.936385 1.83928 5.60138 0 0 0 -0.000415526 0 
1095 1 4.96129 2.93185 6.55735 0 0 0 -0.000629073 0 
4177 2 2.37083 1.75513 5.28919 0 1 0 0.00133214 0 
4300 2 3.68561 1.26073 5.91603 1 1 0 0.000456287 0 
1107 1 1.57628 0.150057 8.82611 0 0 0 -0.000618471 0 
3728 2 6.84261 4.6758 7.05943 0 0 0 -0.000795473 0 
1083 1 1.95591 1.10712 9.02502 0 0 0 -0.000826089 0 
2270 1 4.53066 0.0604834 9.18996 0 1 -1 0.000513168 1 
3924 2 5.40291 1.46934 8.6352 0 1 -2 0.000440239 0 
1618 1 6.6418 3.87665 6.63075 0 0 0 -0.00045494 0 
1722 1 4.09186 0.249164 7.75584 0 1 0 0.000379009 0 
1627 1 5.67006 2.24199 8.06924 0 0 0 -0.000755398 0 
3640 2 3.47268 4.75359 7.22041 0 0 -1 -0.000504992 0 
1624 1 4.92729 4.71788 7.82025 0 0 0 -0.00010118 0 
1379 1 6.43512 3.96483 9.59889 0 1 0 0.000297327 0 
1403 1 2.70685 0.0252516 5.46052 0 1 0 0.000520083 0 
662 1 1.60969 3.17938 8.33723 0 0 0 -0.000730216 0 
3617 2 5.01398 0.398165 7.70342 0 0 0 -0.000745448 0 
2088 1 1.34454 2.66291 5.05964 0 0 0 -0.000668294 0 
547 1 0.892254 1.68165 6.68491 0 0 0 -0.00147322 0 
3749 2 5.01716 3.37024 9.61983 0 0 0 -0.000647904 0 
1177 1 1.63142 1.54405 4.84381 0 0 0 -0.000643696 0 
763 1 4.06787 7.42651 0.361692 0 0 0 -7.48105e-05 0 
3997 2 4.19701 6.54173 0.770692 0 0 -1 0.000131478 0 
634 1 5.31123 8.06878 2.51781 0 0 1 2.7068e-06 0 
1664 1 5.22876 7.25352 1.86777 0 0 1 -6.33568e-05 0 
747 1 6.92162 9.6497 1.37878 0 0 0 0.000146207 0 
1522 1 5.08325 5.65882 4.16699 0 0 0 -0.000684917 0 
972 1 6.2329 6.35865 3.15549 0 0 0 -0.000450103 0 
73 1 5.33 7.12312 4.70387 0 0 -1 -6.3741e-05 0 
2855 1 6.97941 7.23136 4.69874 0 0 0 -6.73916e-05 0 
1669 1 8.84405 9.46636 4.64899 0 0 0 0.000143635 0 
979 1 8.10212 9.05185 2.66349 0 0 0 0.000109723 0 
761 1 8.40139 8.33912 4.50896 0 1 0 0.0012488 0 
1094 1 5.79452 7.21004 2.81543 0 0 0 0.000220657 0 
1370 1 7.74344 6.29921 1.96534 0 0 0 -0.000222325 0 
1502 1 6.8535 4.90539 2.47367 0 0 0 -0.000376318 0 
90 1 3.25647 5.32472 4.07051 0 0 0 -0.000180192 0 
1124 1 6.20809 8.65968 3.76924 0 0 0 -0.000106264 0 
3901 2 7.72736 8.12593 1.61542 0 0 0 7.54947e-05 0 
1663 1 6.26595 8.61746 0.730896 0 0 0 0.000184347 0 
1637 1 4.49476 6.49665 4.50614 0 0 0 -0.000103998 0 
1477 1 5.64433 7.83486 0.218524 0 0 0 0.000265862 0 
1052 1 4.5555 5.64252 1.89124 0 0 0 -0.000602681 0 
1494 1 9.12385 8.81844 2.82748 0 0 0 0.000137426 0 
1164 1 3.24039 6.20735 3.11251 0 0 0 4.63826e-05 0 
4025 2 8.48029 9.38069 0.973605 0 0 0 0.000162117 0 
753 1 5.34458 8.33224 4.25927 0 0 0 -2.87015e-05 0 
1632 1 6.0448 5.5233 3.84274 0 0 0 -0.000320534 0 
1045 1 5.11971 7.14381 0.820188 0 0 0 -0.000316893 0 
528 1 3.45349 6.3248 4.19376 0 0 0 -0.000125594 0 
1121 1 2.46707 4.85667 2.15382 0 0 1 -0.000191923 0 
3838 2 3.64887 5.38501 3.20865 0 0 0 -0.000308398 0 
589 1 4.97173 7.63802 3.42273 0 0 0 0.000146908 0 
2106 1 7.3161 7.82345 0.863137 0 0 1 -3.57608e-05 0 
3121 1 7.75161 6.67319 4.13578 0 0 0 -8.46215e-05 0 
139 1 4.36907 6.69589 1.62328 0 0 1 -0.000169599 0 
3885 2 7.99003 7.73264 0.3633 0 0 1 -0.000787668 0 
1607 1 7.41891 5.92983 0.664955 0 0 1 -0.000485173 0 
1003 1 7.59655 7.75257 4.03708 0 0 0 -0.000319532 0 
561 1 6.17797 6.47201 4.28905 0 0 0 -0.00048592 0 
2136 1 6.6953 5.96955 2.28423 0 0 1 -0.000297582 0 
1297 1 6.9506 8.51004 1.61388 0 0 0 0.000123803 0 
1756 1 7.8475 9.0802 1.55543 0 0 1 0.000129817 0 
1188 1 6.51607 5.93393 0.153382 0 0 1 -0.000590763 0 
1571 1 5.27771 6.30038 2.51785 0 0 0 -0.000427335 0 
1941 1 7.09293 9.2045 2.40059 0 0 0 0.00015572 0 
1060 1 6.20433 8.77062 2.67043 0 0 0 0.000147115 0 
1460 1 4.9517 4.99191 0.298678 0 0 0 -0.00032359 0 
1105 1 4.26577 5.85174 3.60198 0 0 1 -0.000146123 0 
903 1 5.92882 8.9869 1.68432 0 0 1 -4.209e-07 0 
4283 2 4.95621 7.0373 2.84149 1 1 -1 0.00127711 0 
3971 2 6.7118 5.45515 3.12496 0 0 0 -0.000255445 0 
1390 1 6.97275 7.07183 2.38216 0 0 0 -0.000239335 0 
3779 2 7.21415 8.83525 0.924695 0 0 0 0.000152562 0 
1488 1 5.85514 6.40461 0.909638 0 0 0 -0.000761505 0 
1880 1 7.04713 5.8089 3.90834 0 0 0 -0.000346113 0 
1043 1 5.27942 6.60194 3.74524 0 0 0 -0.000121561 0 
955 1 4.42417 5.00798 2.91812 0 0 0 -0.000637879 0 
3684 2 6.62143 7.95234 0.185838 0 0 0 0.000364576 0 
1046 1 5.51294 9.58644 3.93131 0 0 0 0.000333355 0 
1891 1 9.32159 9.53899 0.682209 0 0 1 0.000249149 0 
1562 1 3.52701 5.37091 2.25174 0 0 1 -0.000615011 0 
509 1 4.25533 6.42703 2.58982 0 0 0 -0.000299145 0 
3963 2 5.23505 6.4144 1.58155 0 0 1 -0.000672164 0 
1675 1 6.7262 9.43185 0.284807 0 0 1 0.000234199 0 
4066 2 5.26985 9.01278 1.13073 0 0 0 0.00030294 0 
1253 1 2.76931 5.20596 3.16093 0 0 0 -0.000479991 0 
236 1 3.43378 6.40702 2.08379 0 0 0 -0.000325605 0 
1395 1 4.33831 8.42321 2.88016 0 0 1 0.000235414 0 
1992 1 8.98638 8.63261 1.05428 0 0 0 1.60381e-05 0 
1170 1 7.70422 9.57137 0.650528 0 0 0 0.000178367 0 
3694 2 5.0773 5.15691 1.3009 0 0 0 -0.000548521 0 
1023 1 4.81635 5.95556 0.877489 0 0 0 -0.000739025 0 
804 1 6.26776 7.84688 2.15797 0 0 -1 3.55589e-05 0 
3462 2 6.75951 7.92459 4.20531 0 0 0 -0.000735912 0 
141 1 4.06045 5.58465 0.15629 0 0 1 -0.000248419 0 
585 1 7.00621 8.69243 4.52913 0 0 0 -0.000188518 0 
1795 1 4.37074 7.59352 4.30156 0 0 0 -3.30382e-05 0 
1044 1 8.34785 9.22633 3.80843 0 0 0 0.000140647 0 
3867 2 6.64356 5.41901 4.59434 0 0 0 -0.000281255 0 
1834 1 7.80277 7.31846 1.81642 0 0 1 8.87513e-05 0 
1650 1 7.33999 6.2176 3.03711 0 0 0 -0.000384321 0 
618 1 6.07578 6.72999 1.95138 0 0 1 -0.000207066 0 
1536 1 6.91213 6.62822 1.3698 0 0 0 -0.000185923 0 
1710 1 4.767 8.68468 1.84613 0 0 0 0.000178572 0 
1158 1 4.25331 6.92613 3.50646 0 0 1 0.000123844 0 
959 1 7.79081 7.25244 3.05764 0 0 0 -0.000442672 0 
77 1 6.12081 7.42642 1.1936 0 0 0 -0.000115865 0 
3886 2 6.97521 7.57761 1.61342 0 0 1 9.36097e-05 0 
1463 1 6.82123 6.96019 3.62578 0 0 0 -0.000588146 0 
1745 1 8.21083 8.28398 3.32838 0 0 0 -3.5563e-05 0 
1159 1 6.66627 6.98018 0.351704 0 0 1 -0.000237566 0 
2201 1 5.82559 5.25585 0.776906 0 1 0 0.000708899 0 
2375 1 3.75297 5.87008 1.15887 0 1 0 0.000268 0 
3696 2 5.38178 8.88068 2.3932 0 0 0 5.82054e-05 0 
1671 1 7.00268 4.97359 0.245071 0 0 1 -0.000414111 0 
1985 1 6.56694 9.4947 3.29966 0 0 0 0.000478341 0 
1123 1 3.09238 5.4464 0.486784 0 0 0 -0.000687358 0 
3605 2 5.76966 8.00727 3.23994 0 0 0 9.80574e-05 0 
4038 2 4.82632 7.95871 0.574094 0 0 1 0.000230055 0 
1151 1 7.22858 8.55952 0.0896898 0 0 0 0.000205855 0 
1130 1 5.29809 8.82223 3.26017 0 0 0 0.000226316 0 
1157 1 4.47679 8.71774 0.882118 0 0 0 0.000220679 0 
2037 1 5.87357 5.38719 2.72216 0 0 0 -0.000341623 0 
936 1 4.30835 7.43388 2.41006 0 0 0 0.000108731 0 
977 1 4.40135 7.77553 1.29884 0 0 0 -0.00025963 0 
1517 1 5.3152 8.85342 0.302904 0 0 0 0.000142146 0 
4235 2 6.40883 9.40919 4.23607 1 0 0 5.77685e-05 0 
503 1 4.26672 4.87629 1.12498 0 0 0 -0.000997806 0 
2354 1 8.48542 8.26003 2.08486 0 0 0 -0.00030609 0 
709 1 4.93724 9.13042 4.73008 0 0 0 8.78116e-05 0 
999 1 8.25251 8.70899 0.386117 0 0 0 0.00024986 0 
957 1 4.67012 6.53522 0.00833924 0 0 0 -0.000160715 0 
705 1 5.90605 7.44612 3.89681 0 0 1 -0.000267346 0 
1564 1 5.68378 5.7439 1.71005 0 0 1 -0.000426422 0 
1692 1 6.62856 7.86783 3.17023 0 0 1 -0.000390644 0 
3720 2 4.7357 9.46254 3.49366 0 0 0 0.000287497 0 
387 1 4.08722 5.51008 4.65549 0 0 0 -0.000324349 0 
61 1 7.22212 8.73303 3.31379 0 0 0 1.70428e-05 0 
3809 2 5.24568 5.70735 3.1913 0 0 1 -8.07753e-05 0 
1009 1 7.43476 8.06064 2.46357 0 0 0 0.000408091 0 
1568 1 5.42834 8.16215 1.26126 0 0 0 -0.000267155 0 
2141 1 6.81872 5.45852 1.41715 0 0 1 -0.000339371 0 
1542 1 8.37557 7.80671 1.08996 0 0 0 -8.39915e-05 0 
1597 1 7.72713 6.9043 0.713668 0 0 0 -0.000343143 0 
1598 1 8.89077 9.26375 1.91019 0 0 1 0.000111157 0 
3706 2 3.79771 7.27294 1.71105 0 0 0 -0.000113177 0 
1728 1 9.34012 9.58208 3.61185 0 0 0 0.000150265 0 
176 1 7.37453 9.55641 4.02967 0 0 0 0.000208989 0 
414 1 6.00854 8.93289 4.81968 0 0 1 -0.000100687 0 
3771 2 7.44673 5.52661 2.51941 0 1 -1 0.000894703 0 
3736 2 4.03423 7.85882 3.47829 0 0 1 0.000105051 0 
3689 2 5.38234 6.25886 4.71985 0 0 1 -0.000493085 0 
989 1 3.43738 6.85768 1.04693 0 0 0 -0.00012915 0 
534 1 4.39794 4.83229 3.96866 0 0 0 -0.000441321 0 
3832 2 4.97324 8.12085 7.26466 0 0 0 -7.87784e-05 0 
1152 1 6.69549 7.11524 6.31556 0 0 0 -0.000192266 0 
1448 1 8.12661 7.05672 8.92901 0 0 -1 -0.000205403 0 
990 1 7.92646 7.4694 6.26827 0 0 0 0.000247258 0 
1809 1 4.99692 7.53642 6.59678 0 0 -1 -0.00017632 0 
643 1 4.49381 7.40339 5.32588 0 0 0 -0.000354683 0 
1452 1 4.25829 8.38242 5.71324 0 0 0 -1.71661e-05 0 
1566 1 4.71615 5.77768 7.84427 0 0 0 -0.000613134 0 
132 1 4.64634 8.09949 8.22762 0 0 0 7.26605e-05 0 
1503 1 8.7466 8.89894 5.60903 0 0 0 -6.49252e-05 0 
1688 1 7.58157 5.76725 5.67821 0 0 0 -0.000354586 0 
2032 1 4.14435 6.65354 7.838 0 0 -1 -0.000593364 0 
2151 1 6.91454 6.18497 4.8932 0 0 0 -0.000259983 0 
2243 1 5.01122 6.51836 5.53673 0 0 0 -0.000357057 0 
3851 2 4.93327 6.61845 8.02905 0 0 -1 -9.85866e-05 0 
1138 1 3.96977 4.99914 5.72828 0 0 1 -0.00033725 0 
2398 1 5.04472 6.43941 7.09337 0 0 0 -0.000389318 0 
1300 1 7.0176 8.3338 8.65249 0 0 -1 9.80344e-06 0 
1149 1 3.31738 5.43633 9.08772 0 0 0 8.97603e-06 0 
1492 1 8.83095 8.5234 7.57646 0 0 -1 5.22089e-05 0 
1346 1 5.58111 8.40044 7.92635 0 0 0 -5.86191e-05 0 
4290 2 6.16876 8.31762 8.50383 1 0 -2 0.000621298 0 
1430 1 5.63308 5.77052 6.05849 0 0 0 -0.000583787 0 
3993 2 4.94427 7.37837 9.5655 0 0 -2 -8.73352e-05 0 
1348 1 5.33468 8.20157 5.36639 0 0 0 8.24487e-05 0 
3761 2 3.69854 5.37776 6.50175 0 0 0 -0.000831887 0 
1955 1 5.31298 5.39455 7.03307 0 0 0 -0.00127887 0 
554 1 7.98541 8.58739 8.19957 0 0 0 0.000133078 0 
1483 1 8.0272 8.20807 7.05387 0 0 -1 -6.15406e-06 0 
163 1 4.77174 8.94685 7.64164 0 0 0 -5.93474e-05 0 
702 1 6.06768 7.84907 6.03184 0 0 0 -8.59896e-05 0 
1115 1 6.82759 5.11556 5.36862 0 0 0 -0.000359379 0 
1673 1 7.40739 7.73816 7.78154 0 0 0 3.37836e-07 0 
1116 1 3.64073 5.68707 7.76777 0 0 0 -0.000544677 0 
998 1 4.55062 5.81834 6.37233 0 0 0 -0.000688335 0 
824 1 4.57194 8.1254 9.4201 0 0 -1 7.02802e-05 0 
1139 1 7.16937 7.00901 8.47506 0 0 0 -0.000154805 0 
1559 1 7.78487 6.01129 8.30955 0 0 -1 -0.000200368 0 
1438 1 7.41321 6.39042 9.35443 0 0 -1 -0.000298784 0 
965 1 6.20247 7.87304 4.84178 0 0 0 1.72932e-05 0 
3503 2 6.15293 5.41343 7.20057 -1 0 2 5.22978e-05 0 
4317 2 8.77416 8.31742 8.48108 0 0 0 -0.000427954 0 
2457 1 6.2251 6.88905 5.32582 0 0 0 3.1964e-05 0 
333 1 6.31059 9.55704 5.78505 0 0 0 0.000111002 0 
3621 2 5.65493 7.03368 7.02842 0 0 0 0.000843604 0 
514 1 5.81524 9.2709 7.33616 0 0 0 4.53999e-05 0 
3846 2 5.7495 9.39647 6.45865 0 0 -1 5.80385e-05 0 
3975 2 7.80573 6.4049 5.02047 0 0 -1 -0.000397587 0 
221 1 4.30844 6.82058 6.3313 0 0 0 -9.77904e-05 0 
2968 1 5.20945 8.82928 8.85561 1 0 -1 0.00019754 0 
2267 1 7.04079 7.97673 6.6143 0 0 0 -4.60996e-05 0 
1005 1 4.97559 5.55753 5.26348 0 0 0 -0.00014764 0 
1794 1 3.88149 6.11433 5.54001 0 0 -1 -0.000676128 0 
3499 2 5.85039 8.69952 5.74368 0 0 0 -1.78515e-05 0 
1466 1 5.22493 7.3676 7.68677 0 0 0 -0.000181201 0 
639 1 6.21035 9.15939 8.44057 0 0 0 0.000252299 0 
4014 2 5.30852 7.40184 5.72854 0 0 0 -0.00022871 0 
1189 1 8.37276 7.65081 8.05029 0 0 0 -4.69799e-05 0 
1041 1 6.20515 7.55786 8.08027 0 0 -1 -0.000120409 0 
3830 2 5.75938 7.07579 8.66798 0 0 0 -0.000181379 0 
1656 1 7.80791 9.27061 9.17821 0 0 0 0.000442215 0 
1645 1 6.93301 6.07417 7.83515 0 0 0 -0.000432442 0 
3458 2 3.61134 7.03697 7.01847 0 0 0 -0.000460042 0 
1415 1 4.22687 7.57853 7.29477 0 0 0 -0.000316218 0 
3973 2 7.54826 7.32305 7.02507 0 0 0 -0.000232835 0 
1532 1 7.34523 6.9165 5.58291 0 0 0 -0.000466416 0 
1443 1 4.22345 5.1427 7.13201 0 0 0 -0.000988871 0 
1450 1 5.89863 9.5 9.34728 0 0 -1 0.000205566 0 
997 1 3.06928 5.61748 5.96169 0 0 0 -0.000557834 0 
3934 2 6.75742 7.55943 5.53401 0 0 0 4.21645e-05 0 
1486 1 5.8203 5.55013 8.01615 0 0 -1 -0.000260469 0 
3666 2 4.159 7.77006 6.37607 0 0 0 0.000245115 0 
3421 1 3.49647 6.29242 6.60897 1 0 0 -0.000361599 0 
1136 1 4.7587 7.07911 8.72795 0 0 0 0.000355973 0 
2121 1 7.7976 8.4513 6.00543 0 0 0 -4.29707e-05 0 
1833 1 6.73653 8.47868 7.65993 0 0 0 6.00004e-05 0 
2161 1 6.26649 4.99197 6.38718 0 0 0 -0.00105906 0 
1653 1 5.69879 6.83759 6.19117 0 0 0 -0.000178802 0 
1521 1 7.36991 7.57189 9.44617 0 0 -1 -0.000186247 0 
1871 1 9.43273 9.50075 7.64207 0 0 0 0.000212605 0 
1557 1 7.00277 5.60633 8.80142 0 0 0 -0.00102154 0 
2153 1 6.41074 6.48587 8.84729 0 0 0 -0.000153851 0 
993 1 6.73154 6.1217 6.01474 0 0 0 0.000132341 0 
3889 2 6.91437 9.07886 9.11442 0 -1 0 -0.000809736 0 
521 1 3.7382 7.39303 8.93488 0 0 -1 0.000104776 0 
895 1 5.07029 9.12077 5.7853 0 0 1 -8.63932e-05 0 
672 1 7.78313 6.68288 7.56092 0 0 0 -0.000396619 0 
1918 1 6.20283 8.49342 9.34491 0 0 0 0.000100575 0 
1658 1 6.06451 7.90116 7.07121 0 0 0 -0.000227143 0 
3837 2 7.60111 7.69412 8.63496 0 0 -1 -0.000108161 0 
607 1 7.1834 9.34035 8.21002 0 0 0 0.000140267 0 
3966 2 7.53004 5.53211 7.5096 0 1 0 0.00121845 0 
682 1 7.85996 9.08811 4.99312 0 0 0 0.000128658 0 
606 1 6.45491 8.84322 6.60905 0 0 1 1.43877e-05 0 
707 1 4.33374 8.53063 6.76407 0 0 0 8.84447e-06 0 
1548 1 7.62229 7.98177 5.10106 0 0 0 6.34377e-05 0 
2045 1 6.78381 8.57686 5.61239 0 0 0 7.56973e-06 0 
3510 2 5.98245 5.74402 8.84165 0 0 0 0.000103114 0 
660 1 5.37274 8.56652 6.60318 0 0 0 -6.67937e-05 0 
1993 1 3.50094 6.48689 8.60085 0 0 -1 5.93183e-05 0 
4309 2 6.68987 9.43575 7.59145 1 0 0 7.27185e-05 0 
2373 1 8.18824 9.45177 7.57188 0 0 0 0.000131425 0 
1518 1 6.00266 5.7661 5.15393 0 0 0 -0.000197005 0 
1560 1 6.39533 7.50151 9.14507 0 0 -1 -7.96379e-05 0 
2381 1 8.20112 8.14827 9.13011 0 0 0 0.000123823 0 
1513 1 6.11961 5.01944 9.33864 0 0 -1 -0.000491366 0 
3986 2 4.19562 6.12818 7.14156 0 0 -1 -7.10272e-05 0 
1574 1 5.19224 5.19127 8.81622 0 0 0 5.6685e-05 0 
651 1 8.75247 9.26355 8.38978 0 0 0 -8.24077e-05 0 
2071 1 7.54011 6.49628 6.57591 0 0 0 -2.75529e-06 0 
4246 2 4.15362 7.43337 8.18135 1 0 0 0.000195296 0 
1716 1 7.31355 9.43688 6.01492 0 0 0 5.99654e-05 0 
1657 1 6.97885 5.55613 6.92372 0 0 0 -0.000264532 0 
1102 1 4.31972 5.9354 8.8362 0 0 0 2.55489e-05 0 
886 1 5.33634 6.28326 8.65325 0 0 0 0.000118926 0 
1540 1 5.85026 6.59577 7.84335 0 0 -1 -2.41785e-05 0 
2129 1 4.09183 4.9972 8.37594 0 0 0 -0.000389917 0 
1140 1 7.33938 9.1023 7.03421 0 0 0 -3.9003e-05 0 
1227 1 6.09533 6.18794 6.92761 0 1 0 0.000813399 0 
2292 1 6.74348 7.04879 7.31028 0 0 -1 -2.79754e-05 0 
1547 1 5.5022 7.86166 8.8355 0 0 -1 -2.02126e-05 0 
1668 1 8.24739 9.24271 6.5351 0 0 0 6.15029e-05 0 
982 1 2.94883 5.50719 7.04738 0 0 -1 -0.000766383 0 
3532 2 4.55204 8.26243 4.85379 0 0 0 -0.000116914 0 
1086 1 6.86721 4.9999 7.83373 0 0 0 -0.000655224 0 
3374 1 4.88022 9.50582 6.71321 1 0 0 7.5669e-05 0 
2019 1 8.6347 7.89288 5.47684 0 0 0 4.82544e-05 0 
316 1 3.62955 6.9852 4.99169 0 0 0 -0.000228279 0 
498 1 9.23 8.9847 9.27631 0 0 -1 0.000273951 0 
2542 1 8.16959 7.17961 4.91488 0 0 0 4.15002e-05 0 
2215 1 8.78859 8.18444 6.39487 0 0 0 -6.02793e-05 0 
2262 1 9.25993 9.03853 6.75612 0 0 -1 -0.000358593 0 
191 1 4.86801 4.83016 6.28176 0 0 0 -0.000347704 0 
1017 1 5.63558 6.82523 9.54836 0 0 -1 -0.000182119 0 
1643 1 3.60693 6.5487 9.65071 0 0 0 -0.00031599 0 
667 1 2.96468 4.89244 5.28424 0 0 0 -0.000808604 0 
1142 1 5.46386 5.82015 9.61551 0 0 0 -0.000404894 0 
1255 1 7.66353 11.4173 1.33734 0 0 0 0.000339778 0 
1275 1 7.44839 11.6775 3.91441 0 0 0 0.000135487 0 
1272 1 6.82737 11.3386 2.08605 0 0 0 0.000231522 0 
2363 1 9.95947 11.6649 4.15335 0 0 0 0.00030221 0 
1749 1 6.85215 13.2887 1.64694 0 0 0 0.000280355 0 
368 1 6.5662 12.1268 4.78461 0 0 0 0.000313827 0 
832 1 7.64227 13.3235 4.40634 0 0 -1 0.000338406 0 
1828 1 8.63348 10.2364 1.20019 0 0 0 0.000274478 0 
1263 1 9.13992 12.7725 4.34076 0 0 0 0.000174914 0 
3633 2 7.73767 11.6373 2.19884 0 0 0 0.000391788 0 
3858 2 6.04213 9.82335 1.73266 0 0 0 0.000216898 0 
749 1 9.89832 14.3964 4.69968 0 0 0 0.000414743 0 
3628 2 9.575 11.2499 3.52845 0 0 1 0.000330103 0 
1330 1 7.7312 13.5426 3.26439 0 0 0 0.000510056 0 
1765 1 7.07676 11.1085 0.560139 0 0 0 0.00037242 0 
841 1 10.2146 14.2215 2.63088 0 0 1 0.000362024 0 
1835 1 10.7781 13.4717 1.04674 0 0 1 0.000324453 0 
771 1 7.19428 11.9563 2.91367 0 0 0 0.000330401 0 
3680 2 7.44306 13.6554 1.17018 0 0 1 0.000545767 0 
897 1 10.1016 14.3947 0.663391 0 0 1 0.00025527 0 
1771 1 9.38321 10.9411 1.54975 0 0 0 0.000213789 0 
3475 2 9.65875 10.2371 4.67121 0 0 0 0.000293566 0 
734 1 8.47895 9.93183 3.04032 0 0 0 4.82281e-05 0 
644 1 6.46866 12.2689 1.19612 0 0 1 0.000757647 0 
1313 1 9.69695 13.4178 0.972398 0 0 1 0.000326092 0 
1479 1 11.0904 13.8243 2.99901 0 0 0 0.00043493 0 
3990 2 6.72442 11.318 4.4027 0 0 -1 0.000198375 0 
4191 2 7.32915 12.3511 4.582 1 0 -1 0.000199184 0 
3808 2 9.76163 10.8196 2.27849 0 0 1 0.000233848 0 