LAMMPS data file via write_data, version 12 Dec 2018, timestep = 48000

4320 atoms
2 atom types

0.0000000000000000e+00 1.9309999999999999e+01 xlo xhi
0.0000000000000000e+00 1.9309999999999999e+01 ylo yhi
0.0000000000000000e+00 9.6549999999999994e+00 zlo zhi
1.9310000000000827e-02 0.0000000000000000e+00 0.0000000000000000e+00 xy xz yz

Masses

1 1
2 1

Pair Coeffs # lj/cut

1 1 1
2 0.5 0.88

Atoms # atomic

3378 1 9.9974791972565913e-01 7.0335335257503540e-01 3.9609811822909968e-01 1 1 1
486 1 1.5984982671543115e+00 7.5175472053480730e-01 1.3052279371108770e+00 0 1 1
2861 1 9.5612782413298358e+00 7.5311660525615611e+00 3.4422725155186211e+00 0 0 0
332 1 1.0310833768477248e+00 1.5813625056004630e+00 9.8303689538979855e-01 0 1 0
964 1 2.0757412981803740e+00 6.2811948356778136e-01 3.7441481148288031e-01 0 1 1
29 1 7.1256181874761095e+00 5.3820491226109182e+00 4.1870856607103876e-03 0 0 0
3697 2 1.9542753433926883e+00 1.6248147235746671e+00 8.3412145696093043e-01 1 1 1
135 1 2.7203298984633726e+00 1.3594835929831293e+00 1.0924284383139911e+00 0 1 1
1553 1 4.4732397519219722e+00 7.4719771441107441e-01 4.8055090666767925e-01 0 0 0
4065 2 3.8049776869103935e+00 1.3926209951322472e+00 5.5607045136709232e-01 1 1 1
1198 1 3.4607184117394150e+00 5.6898957963006691e-01 8.3715027371435369e-01 0 0 1
868 1 3.7689400146874967e+00 1.3653670391884141e+00 1.3652415070964716e+00 0 1 0
3422 1 4.3216613652327114e+00 4.2482314716533542e-01 1.5244821248947640e+00 1 1 0
1493 1 4.8401943048736360e+00 1.3430434354041874e+00 1.2596801848702122e+00 0 1 1
4074 2 5.1397215363178832e+00 5.2990296159095007e-01 9.7281367137964525e-01 0 1 1
3203 1 5.5348733448489584e+00 9.8913593499465102e-01 3.2714658456603790e-01 1 0 0
1264 1 5.9554902682030892e+00 1.3564160412384827e+00 1.1291049580445474e+00 0 1 0
376 1 5.9989432498969215e+00 2.6312699190296412e-01 8.8644520719958775e-01 0 1 0
3758 2 6.2980427484960089e+00 5.6257108551935053e-01 1.7080721080228130e+00 0 0 1
663 1 6.9371741215459179e+00 6.4410063990848399e-01 1.0918064518631780e+00 0 0 0
963 1 6.6259033064275323e+00 1.0967256830014318e+00 2.6080256479634611e-01 0 1 1
4222 2 6.6357214221304446e+00 2.4978108846846969e-01 3.2358484877763638e-01 1 0 -1
205 1 3.1125764276256578e+00 9.5784744094679546e+00 3.4259700123356209e+00 0 0 0
3797 2 7.5835727122270216e+00 1.2775591747514300e-01 1.0609221886923288e+00 0 1 -1
2154 1 7.9100643635624186e+00 8.9127938589558076e-01 1.4715305713578657e+00 0 0 1
1412 1 8.6625946306843247e+00 3.9305725650319860e-02 1.7706242380153809e+00 0 1 0
3539 2 7.2302589675898137e+00 6.6996084138826744e+00 3.6778496517916082e-01 0 0 1
1177 1 8.8305162851400230e+00 1.3047308583811530e+00 9.3757111421138717e-01 0 0 1
2805 1 8.4041862575988500e+00 2.9251129006060367e-01 7.9285049638652694e-01 1 1 1
3268 1 2.0630621748825684e+00 9.5590051710583985e+00 3.7190795253322624e+00 1 0 0
3991 2 9.6188549557833998e+00 5.9850459303714469e+00 4.2526673172035592e+00 0 1 1
4160 2 4.4507156175686707e-01 8.1018532762387174e+00 2.0022653499746615e-01 1 -1 -2
3871 2 6.5322929913127812e+00 7.9421944215800053e+00 1.1179260079056308e-01 0 0 0
2926 1 1.4947170421914693e+00 2.4912052623619148e+00 6.5064723070082564e-01 1 1 1
2794 1 4.8178809918661097e-01 2.5013524731961079e+00 1.0283958602334977e+00 1 0 0
3597 2 9.2744858861868940e-01 3.1374026203271490e+00 1.4754416949110971e+00 0 1 0
979 1 9.6732722229365839e-02 9.4031092853101728e-01 9.1950196678251384e-01 0 1 0
885 1 2.6014967365026984e+00 2.5323307624684417e+00 9.1271855599371676e-01 0 1 1
790 1 2.4991931908838136e+00 1.8359514372471758e-01 1.2930922521293238e+00 0 1 0
512 1 1.7630877000386216e+00 3.3194984463444026e+00 1.1938919497129454e+00 0 0 0
3535 2 3.2819369548167105e+00 3.1358055491988028e+00 1.1472364452057811e+00 0 1 0
4118 2 5.6188157114762580e+00 9.6324067883493569e+00 1.9390639120187609e+00 1 1 1
3224 1 4.4906355716065729e+00 1.9089928114528700e+00 4.2602668839972585e-01 1 1 0
1822 1 3.6329307477556072e+00 2.2481630014622680e+00 9.4041231334313757e-01 0 1 0
1031 1 4.6117951511356008e+00 2.5364313425916816e+00 1.3435386646673504e+00 0 0 0
3604 2 4.1022262477179483e+00 2.6132139192072006e+00 2.7743044354250146e-01 0 0 0
4308 2 4.2533910968798327e+00 1.9785911505897260e+00 1.8861989761183608e+00 0 0 1
640 1 4.9931849922918161e+00 3.0104541473967958e+00 3.8530540416072556e-01 0 0 1
1704 1 6.0494563295405630e+00 3.0363534442731028e+00 2.6127675626578517e-01 0 0 1
333 1 2.8084240456491365e+00 4.2881566356344919e-01 4.7928385152105939e+00 0 1 0
100 1 5.5954591273549834e+00 3.0195573025073830e+00 1.3250013179038564e+00 0 0 0
951 1 5.4469241843775258e+00 2.1904775906463732e+00 7.7575821394650424e-01 0 1 1
1055 1 7.4396133598633796e+00 1.5887826337656294e+00 7.8191781343159716e-01 0 0 0
3784 2 6.7391947553865919e+00 1.4604934336071820e+00 1.3311248364420474e+00 0 0 -1
629 1 6.5361364418681696e+00 2.2137445412535817e+00 7.2012320580796041e-01 0 0 0
1563 1 7.4444422825811882e+00 2.6395568336713287e+00 1.4215897206981272e+00 0 0 0
576 1 8.1674143011501830e+00 3.1609948632838489e+00 4.9155152251802331e-01 0 0 0
1632 1 8.2397136907319268e+00 1.8475061265797801e+00 1.4726082312429503e+00 0 0 0
3737 2 8.0352477376144282e+00 2.2646309405645280e+00 7.6269080272607470e-01 1 1 0
3175 1 9.0842718821822359e+00 2.4000143688902917e+00 7.6001116122496482e-01 1 0 1
1395 1 8.5103225025787346e+00 2.8977777857279263e+00 1.6077514586811088e+00 0 1 1
3612 2 6.2727518685665249e+00 2.9887477587200956e-01 4.8165464675185659e+00 0 0 0
3814 2 8.9915801108012321e+00 3.1288115108433510e+00 1.1770751698811702e-01 -1 0 2
3383 1 9.2042961109198063e-01 3.3975077105065208e+00 5.1342784553057541e-01 1 0 1
547 1 1.0337563948827007e+00 4.0468052374451799e+00 1.3915480247083967e+00 0 0 1
2997 1 2.9938400428170731e-01 4.2590866215351308e+00 4.0306058386188037e-01 1 0 0
72 1 1.5001315605094467e+00 4.2056198071190209e+00 3.7977218584689165e-01 0 0 0
1221 1 9.6033634541410908e+00 5.2292210030369910e+00 2.0270432511338625e+00 0 0 1
3569 2 4.1390316508403208e-01 6.3073704666148513e+00 4.1415062998650298e-01 0 0 2
2007 1 1.8577937480652378e+00 4.5598841859710681e+00 1.3832884345670027e+00 1 0 0
460 1 1.9529730728247916e+00 3.8075329756312899e-02 4.3352525261165598e+00 0 1 0
3150 1 2.7354289424462150e+00 3.8269043906278846e+00 1.1130185114563464e+00 1 0 0
1485 1 4.0326400258846986e+00 3.2852714558727283e+00 8.4414744926866647e-01 0 1 1
78 1 1.3258661794029877e-01 1.6548859015723500e+00 1.6872464646268557e+00 0 0 0
34 1 3.6531335843771835e+00 4.1666939863468295e+00 6.1070306358081250e-01 0 0 0
1056 1 4.5614619705613650e+00 4.0832357017172907e+00 1.2448424336867110e+00 0 0 0
965 1 3.6835522769620401e+00 3.7191804710452994e+00 1.7145111508490225e+00 0 0 1
3915 2 5.2510310444144759e+00 3.6802631866193147e+00 8.0401889318176756e-01 0 1 1
555 1 5.3588452378662019e+00 4.6366739724673751e+00 8.3296237522460304e-01 0 0 0
1214 1 6.1611445608296078e+00 4.0345252360409418e+00 7.6584530599468770e-01 0 0 1
910 1 5.6462473701052724e+00 4.0277774499184886e+00 1.7853930609910194e+00 0 1 0
810 1 7.0414243334143496e+00 3.3436940104500086e+00 6.2813341147205137e-01 0 1 1
2165 1 9.3492958018635122e+00 9.3680940173913427e+00 1.4219618104459051e+00 0 0 1
981 1 7.2547714840325783e+00 4.3530056434672844e+00 3.8141503524866061e-01 0 1 0
3546 2 6.8892374297170775e+00 4.0944960669650357e+00 1.1649320861640058e+00 0 0 1
2081 1 7.6876893619330451e+00 3.6702019870968421e+00 1.3703875103354786e+00 0 0 0
2050 1 6.5572303509624055e+00 3.4382605167222819e+00 1.6153562637513745e+00 0 0 0
3840 2 9.5896427347047428e+00 5.1229248594842671e+00 2.8483222154262147e+00 0 0 0
639 1 9.0583873872249310e+00 3.5318386086043745e+00 9.9362878457420345e-01 0 0 0
2302 1 9.4109499143974489e+00 5.2933370871040841e+00 4.7032696721447973e+00 0 0 0
1946 1 8.2934570838886348e+00 4.2281354521251284e+00 7.4319925642287199e-01 0 1 0
3094 1 1.0451324890633500e+00 4.9863543692078487e+00 8.4213977554808195e-01 1 0 0
2010 1 1.1765004658286151e+00 5.9427671521679351e+00 4.5174019945296284e-01 1 0 0
3626 2 5.9414906308251849e+00 1.7099052858057446e+00 2.2035793053021607e-01 0 0 0
4236 2 2.8994875868718550e-01 1.9778188371768308e+00 2.5744155002057978e+00 1 0 0
3994 2 2.5687506895189971e-01 4.2386231826326739e+00 4.7726458062419885e+00 1 0 0
1783 1 9.4304196022565421e+00 4.7318898952142319e-01 9.8010905627076073e-01 0 1 0
1976 1 1.8078314705433203e+00 5.5974691130616039e+00 1.2932840585418022e+00 0 0 1
2670 1 2.0434589761039610e+00 5.1787777139769595e+00 1.9199782142252650e-01 1 0 1
1042 1 2.6776037192482267e+00 6.0447914784066796e+00 9.8481842506084694e-01 0 0 1
1233 1 2.7643546853489949e+00 4.9793555603232926e+00 9.7090610131948818e-01 0 0 1
201 1 2.7181051540782768e+00 4.2764483409911165e+00 1.0877460793926878e-01 0 0 2
3059 1 3.6192387439476494e+00 4.7428143824956113e+00 1.4816908102573005e+00 1 0 0
2654 1 4.3526293505894236e+00 4.9689946755666075e+00 6.9168448098029445e-01 1 0 1
138 1 3.7602549214807142e+00 5.9251345708116405e+00 9.4140337063946267e-01 0 0 1
3671 2 3.4513263249621260e+00 4.9441355471958754e+00 4.2589575633529431e-01 0 0 1
3034 1 4.8736611563908792e+00 5.8674768045833900e+00 1.1406034761250330e+00 1 0 0
3971 2 5.7615444531326867e+00 5.5051051150753887e+00 8.8058262457481951e-01 0 0 0
146 1 6.4862833951794787e+00 6.0710310801003802e+00 4.8822626747418402e-01 0 0 0
655 1 5.9559896597393287e+00 6.0430703370311107e+00 1.4952917714599081e+00 0 0 0
380 1 4.6382325218817977e+00 4.0087167066112492e+00 2.4652287314179785e-01 0 1 1
2653 1 7.5704762847688265e+00 4.8713760899234506e+00 1.2473906602709179e+00 0 0 1
537 1 6.5869696958574844e+00 5.1149695667164510e+00 8.7583991878505707e-01 0 0 0
80 1 7.4066397392441967e+00 5.8807959052445984e+00 9.6093692746053394e-01 0 0 -1
4073 2 8.1779288434283117e+00 6.0800895330369542e+00 1.4224879865734894e+00 0 0 0
3679 2 8.1435049443134933e+00 5.1213743031708754e+00 6.2852860267436494e-01 0 1 2
2399 1 4.0836942031571484e+00 9.5089679439275354e+00 1.4074910860202312e+00 0 0 0
1305 1 6.2937334695017935e+00 1.7652654468713164e-01 3.6232902607812094e+00 0 1 0
1963 1 5.5954331039188467e+00 7.7807835138882879e+00 2.4392632152011381e-01 0 0 1
2497 1 8.6141917936820818e+00 5.8169265260854388e+00 7.4544709309760460e-01 0 0 0
1215 1 8.6145495625410184e+00 5.0580602758791562e+00 1.4178213112850375e+00 0 0 1
1645 1 3.5788076699451170e+00 3.3673573447247653e+00 4.7734504899923564e+00 0 0 0
2711 1 2.4139772677492446e+00 1.8188605373975901e+00 1.2783853403072296e-01 1 1 1
1077 1 8.1359017255380339e-01 6.8475239391578633e+00 9.9101499487814038e-01 0 0 0
17 1 1.4554579795683840e+00 7.6386002289590866e+00 1.0804955969068231e+00 0 0 1
187 1 2.1655437189949271e+00 3.1909350655646835e+00 2.0119356492351612e-01 0 0 0
2250 1 1.8060164423258085e+00 6.6398964799155653e+00 1.1019157314956882e+00 1 0 0
2303 1 2.2336644630080222e+00 7.8081629707230471e+00 3.8231112898603059e-01 1 1 0
3731 2 2.2991400737111154e+00 7.8868346565685208e+00 1.3729177019563388e+00 0 0 0
759 1 2.5479282312701215e+00 6.7401937186023995e+00 1.5048239361491703e-01 0 0 1
1830 1 2.7820331275996213e+00 7.1656840770306340e+00 1.0522540809345833e+00 0 0 0
3124 1 9.5010571101147026e+00 3.1371522309397082e+00 1.8910341568023015e+00 0 0 1
961 1 4.4430761417231279e+00 6.6199577932347111e+00 4.9622723803925139e-01 0 1 1
3878 2 3.3101823010357196e+00 6.6109023745255442e+00 6.7422225662176194e-01 0 0 2
543 1 3.8772317315664449e+00 7.3102529853305169e+00 9.5480116271325555e-01 0 0 1
3694 2 9.4548813550787756e+00 1.5840101244729329e-01 3.5322009805388279e+00 0 1 1
985 1 5.6355451807693786e+00 6.6367175459147418e+00 6.7095740938140980e-01 0 0 1
270 1 4.9334114807190774e+00 7.3896289971809201e+00 9.8544153160456915e-01 0 0 0
1191 1 6.4193465816947599e+00 7.9349032611680776e+00 1.0206071305550022e+00 0 0 0
4287 2 5.7734797935302611e+00 7.3668668014907279e+00 1.3124338434535840e+00 0 0 0
977 1 2.1965167282460718e-01 6.0599958768138080e+00 4.0473451726347935e+00 0 1 1
3412 1 1.9477893506493509e+00 2.6927015559386419e-01 3.2798472330318966e+00 1 1 0
1694 1 6.4516993732317314e+00 7.0568024279090951e+00 1.9872382816004572e-01 0 0 1
1101 1 7.9558625465720993e+00 6.7320860908201219e+00 7.7881469608497556e-01 0 0 1
1364 1 7.3480647995146002e+00 7.5339864706387010e+00 6.4157660831255248e-01 0 0 0
1222 1 6.6866629405700833e+00 6.8811180895072130e+00 1.1892827800459103e+00 0 0 0
1980 1 7.5141959075607305e+00 7.5153555444995765e+00 1.7973174307342306e+00 0 0 0
3096 1 1.2804363117845257e+00 9.6452510053427165e+00 3.1166021601517695e+00 1 0 1
2416 1 8.5309530275770236e+00 7.6111020859072251e+00 7.5979933469813465e-01 0 0 1
551 1 9.1175304968180555e+00 6.6642184811977287e+00 9.0206895551212241e-01 0 0 0
3947 2 2.9891981885781282e+00 7.9896173584900119e+00 4.2395845524053488e+00 1 0 1
1140 1 3.2524317721684506e+00 7.6085113731759950e+00 1.3667199821214687e-01 0 0 0
646 1 1.0333293957646164e+00 8.4677680952286192e+00 7.6543718477527278e-01 0 0 1
3126 1 3.0745830197850427e-01 9.2041368560624726e+00 1.2384212307329785e+00 1 0 1
185 1 5.1969325518574880e+00 1.7577160152119786e+00 4.5948478405119761e+00 0 0 1
121 1 2.0048788903111316e+00 8.7229602091476668e+00 1.0410467887552943e+00 0 0 0
2833 1 2.7481661815304399e+00 8.7024034692589947e+00 3.3013013822479526e-01 1 0 1
959 1 3.1092008540271476e+00 8.1472876174184066e+00 1.1495856807091054e+00 0 0 0
998 1 3.1144814274073664e+00 9.2045994229746260e+00 1.1674844682483239e+00 0 0 1
1141 1 5.0717911376262856e+00 4.5286579246305481e+00 4.6575589210323383e+00 0 0 0
645 1 4.3434899084170384e+00 8.1989948089926017e+00 1.4147681678530730e+00 0 0 1
203 1 3.7664101116325868e+00 8.4648656581156185e+00 4.4582884363824121e-01 0 0 1
821 1 3.0572045845576779e+00 8.0209907082797240e+00 3.2993934105159655e+00 0 0 0
228 1 5.0510994393610744e+00 9.1978041786504310e+00 1.2037074562764485e+00 0 0 0
2263 1 4.8691010291326489e+00 8.4648771968659968e+00 5.2538552207889355e-01 0 0 0
1120 1 5.4866569873803481e+00 8.2373549765300318e+00 1.4409657116750276e+00 0 0 0
3064 1 6.1506823884200541e+00 8.7423039538131846e+00 3.5917485339884991e-01 1 0 0
204 1 6.1158946830148011e+00 9.0547418244292484e+00 1.3802306122080250e+00 0 0 0
787 1 7.5262919575765732e+00 4.7540050080657261e+00 4.7980865213514932e+00 0 0 0
3629 2 7.6162704046623020e+00 8.2656135907052981e+00 1.4230378084463577e+00 0 0 0
1613 1 7.0476221820740959e+00 8.7552590976725124e+00 1.0290281154944270e+00 0 0 1
2757 1 7.6597208433001045e+00 9.4508654232980405e+00 1.5657967670375381e-01 0 0 0
1089 1 6.9745388496903713e+00 8.5801668187747662e-02 4.4416276496618643e+00 0 0 0
2626 1 8.0426938942071011e+00 8.5508998524509590e+00 8.0370961252341222e-01 0 0 0
1908 1 9.0901281186234986e+00 8.4509938961854338e+00 9.7944054960727100e-01 0 0 0
4241 2 9.3858900143712631e+00 9.1384129650796257e+00 5.5135382588322857e-01 0 0 1
516 1 5.1528346965534033e-01 7.2564421547610092e+00 4.1928099579857693e-02 0 0 0
751 1 9.4679472222376670e+00 8.3520889110848753e+00 2.0645560247507966e+00 0 0 1
1216 1 9.1075453647315765e+00 9.2958755740841834e+00 3.3707212279559955e+00 0 0 0
2551 1 6.3256675541295249e-01 6.6515519388920674e-01 1.7735783918519252e+00 1 0 0
3279 1 1.1163047115718625e+00 5.8984920933036877e-01 2.6949412724988133e+00 1 1 0
597 1 1.0549186673953390e+00 1.4872485013519801e+00 2.2591410196555146e+00 0 0 0
993 1 5.9197959938694600e-01 1.3863212775742284e+00 3.2119018614398849e+00 0 1 0
1422 1 6.1808296955036184e+00 9.3131259205877939e+00 4.5943602389364147e+00 0 0 1
487 1 4.7639106761695373e+00 9.0230585127762133e+00 3.3298593134904158e+00 0 0 0
3011 1 2.0321963039660642e+00 1.5778533528483301e+00 1.7756846786576699e+00 1 0 0
2595 1 2.1872672639306203e+00 5.8942510349751043e-01 2.2525126836426659e+00 0 0 0
2565 1 1.7916289987906260e+00 1.4185291894849617e+00 2.9808234580447865e+00 1 0 0
1262 1 2.7165204635041098e+00 1.4446024749261199e+00 2.6349662626055541e+00 0 1 0
950 1 3.1589100852907146e+00 7.5686696954518384e-01 1.9368005174380996e+00 0 1 0
1238 1 2.9816364972536018e+00 5.2456079793385235e-01 3.1746326882512763e+00 0 0 0
4130 2 3.9808600996832642e+00 8.4321513537377935e-01 2.1768998117533469e+00 0 0 -1
3430 1 4.6915419521905415e+00 1.3555704065519694e+00 2.2915231965570451e+00 1 1 1
3272 1 3.9878497232975048e+00 9.1109210647935435e-01 3.0643344198648883e+00 1 1 0
416 1 4.9248808042711953e+00 3.8514322450878302e-01 2.5843250976589296e+00 0 1 1
1875 1 5.4909083343538496e+00 7.0150367541976677e-01 1.7893284847447952e+00 0 1 1
3905 2 5.4562703201569294e+00 1.0960839323503757e+00 2.6014042409412839e+00 1 1 0
2405 1 6.2402149543029237e+00 1.2775304238890113e+00 2.1758472833528941e+00 0 1 0
27 1 6.1007175761020251e+00 3.0643748405236226e-01 2.5370866764321329e+00 0 1 0
2689 1 6.2458206479327041e+00 1.1754792667462346e+00 3.1790234967697319e+00 1 0 0
3459 2 6.9773287244307527e+00 1.2677054939801589e+00 2.7389782287034028e+00 0 0 0
1032 1 7.1041336808547202e+00 6.3976562952929383e-01 2.1676161217426992e+00 0 0 0
820 1 7.9001202602937859e+00 1.2441692238086197e+00 2.6085867552549082e+00 0 1 0
1353 1 8.5265355258580933e-01 5.6757042673688662e-01 4.6498077010323531e+00 0 1 0
1863 1 8.7628330439175350e+00 1.0528710736330003e+00 1.9853328086573117e+00 0 1 0
1231 1 9.0957308169601969e+00 3.5909619068014847e-01 2.7745007668486790e+00 0 0 1
3639 2 8.7617548830691376e+00 1.2948060857345904e+00 2.8323731442865778e+00 0 0 1
600 1 2.6678369909620954e+00 8.7477532539179261e+00 3.9530727573435431e+00 0 0 0
89 1 1.2699835609933925e+00 2.3556444165519315e+00 1.7099272685071780e+00 0 0 -1
4186 2 9.4326630326613223e+00 1.2614474665794693e+00 1.4454083235516972e+00 0 1 1
1234 1 3.2203075832558525e-01 2.7330571552071850e+00 2.0727758305977662e+00 0 0 0
2910 1 9.9882180265162113e-01 2.3223286116799633e+00 2.8907802208918225e+00 1 0 1
4068 2 7.0707723013499335e-01 3.1209009579534359e+00 2.7126162686931754e+00 1 0 -1
1647 1 1.3884215751997955e+00 3.2809452728382014e+00 2.1800600702991044e+00 0 0 0
3764 2 7.5194510785648871e-02 5.4550837249179285e+00 1.9738779050239286e+00 0 0 2
288 1 2.6845962513953201e+00 3.1184486143496479e+00 1.9121500305364409e+00 0 1 0
3586 2 2.0809581929460808e+00 2.5008860174554561e+00 1.6204636611236678e+00 0 0 1
636 1 2.1275664187111638e+00 2.4383011255234344e+00 2.5833887579175956e+00 0 0 0
3377 1 3.1317237522008434e+00 2.6262432309462400e+00 2.7565135735857140e+00 1 1 1
3319 1 2.9781653445095193e+00 2.1521065545672147e+00 1.8219249210967179e+00 1 1 0
3952 2 4.4025387739522523e+00 1.7984472086746215e+00 3.1018930531091677e+00 1 1 0
1123 1 3.6922800375552498e+00 1.8104978626974946e+00 2.5181947070896835e+00 0 0 0
538 1 3.8314031052608009e+00 2.7696674251113804e+00 2.0025588621468891e+00 0 0 0
610 1 4.6631792157579799e+00 2.4261643608747607e+00 2.5423729806519808e+00 0 0 0
4097 2 5.0425328322110570e+00 3.0308301500954387e+00 2.9124846737715835e+00 0 0 1
527 1 5.4045023624250765e+00 2.0548048853286853e+00 1.9267114638472669e+00 0 0 0
427 1 6.3997921711473378e+00 2.2819731882340064e+00 1.7090488545326898e+00 0 1 0
699 1 5.6093690071024493e+00 1.9895205640037670e+00 2.8770646578349384e+00 0 0 1
1026 1 5.8067325975239648e+00 2.9059582556087138e+00 2.4023399662857834e+00 0 0 0
354 1 7.2587609637795918e+00 1.7308791657929690e+00 2.0421530174162736e+00 0 1 0
4141 2 7.9672924293922689e+00 2.4635746867777191e+00 2.0675299431474889e+00 0 2 0
2060 1 6.6204675011332048e+00 2.1013332319345701e+00 2.9056456958202594e+00 0 0 0
753 1 7.0526778972208826e+00 2.9191543239970579e+00 2.3386840583405677e+00 0 0 1
2422 1 7.6645007308999329e+00 2.3438684489554360e+00 3.0025626719336151e+00 0 1 1
1250 1 9.2712024843325285e+00 2.0901472731404702e+00 1.7405244437884191e+00 0 1 0
706 1 8.5902458342398393e+00 2.0873844896035925e+00 2.4955253102567796e+00 0 0 0
2644 1 7.8488436019706109e-01 9.1056474776864036e+00 4.8068831023195022e+00 1 0 1
3921 2 8.7933454094142913e+00 2.9953201149543269e+00 2.3590343340874123e+00 0 1 -1
3889 2 7.5694768898540410e+00 9.4109399188210325e+00 1.1120954702657271e+00 0 -1 1
2214 1 6.4013637878860621e+00 6.8160167395051321e+00 4.7026130187747288e+00 0 0 1
1294 1 5.4566531955489206e-01 3.8833747783481938e+00 2.2430044731474408e+00 0 1 0
589 1 7.1636048346560943e-01 4.7151050061227213e+00 3.0217758770449819e+00 0 0 0
1554 1 3.1670047808501254e+00 3.1069809131588859e+00 1.9838994429039866e-01 1 0 0
402 1 1.1986234090396373e+00 3.7206244813774787e+00 3.1251455813192703e+00 0 0 0
3556 2 2.0259336319317440e+00 3.8329167936962096e+00 1.8860842164078242e+00 0 1 1
613 1 2.1689569042326937e+00 3.6141877759340519e+00 2.7518133162187590e+00 0 0 -1
2897 1 1.5520820414680749e+00 4.4234550291072017e+00 2.3510779405082425e+00 1 1 1
2002 1 2.4530053106773644e+00 4.5554545199444183e+00 3.0720598215666248e+00 1 0 -1
256 1 2.7066469917931726e+00 4.4937042923578758e+00 2.0443350114610239e+00 0 0 0
1433 1 4.1215909013763659e+00 3.2883996900930814e+00 2.8876352728607286e+00 0 1 0
3153 1 3.1919937768293112e+00 3.8454629925756847e+00 2.7433799923358122e+00 1 0 1
1288 1 4.2569078786495771e+00 4.3459847579510660e+00 2.3342157422018830e+00 0 1 0
1181 1 4.7223925310694099e+00 3.3936595329419670e+00 1.9815252575758520e+00 0 0 0
3295 1 5.3013829385904563e+00 3.7913849305884515e+00 2.8572008848566761e+00 1 1 0
2213 1 5.3381079558451319e+00 4.7893277663570277e+00 2.5293955462954099e+00 0 0 1
2427 1 6.2951450639048723e+00 3.8869897029833504e+00 2.6598578386226466e+00 0 1 0
4235 2 7.7444653014940510e+00 3.1914407015172537e+00 3.1498026940891042e+00 1 0 -1
649 1 6.7613297636121175e+00 4.4933212566249923e+00 1.8658141472686254e+00 0 0 1
3508 2 7.2567093852541591e+00 3.7669844452545092e+00 2.1321621914833666e+00 0 1 1
1639 1 7.8148951096427863e+00 4.4347347260621728e+00 2.1673840435859169e+00 0 0 0
1277 1 7.2802931418195458e+00 3.8419407616836092e+00 2.9777094696798145e+00 0 0 -1
1536 1 7.9513140633674642e+00 3.3327141076410172e+00 2.3755903070012958e+00 0 0 0
3869 2 8.2268732289742488e+00 4.1114420964367344e+00 2.8166558002899107e+00 0 0 -1
533 1 8.6792694679140627e+00 3.9923532479857680e+00 1.7801500841281455e+00 0 0 0
1158 1 9.0249232246040911e+00 3.6893078916896642e+00 2.8348135173141835e+00 0 0 0
1035 1 8.7725408056277132e+00 4.7500783320249278e+00 2.5255078193985989e+00 0 0 1
1347 1 1.1200631011716344e+00 6.2503755789286091e+00 1.7995512188880760e+00 0 1 -1
2599 1 3.5721790420649929e-01 1.4527060660180380e+00 2.5687116538413927e-02 1 0 0
3095 1 8.6690126105859810e-01 5.2560700338934092e+00 2.0413986407402271e+00 1 0 0
829 1 5.0329296277338675e-01 5.9800480972650032e+00 2.8015666269187740e+00 0 0 0
3608 2 1.3344527933638375e+00 5.8298840066686033e+00 2.7064776146409595e+00 0 0 0
119 1 1.6155273004234132e+00 5.1749035475984044e+00 3.2386029190012176e+00 0 0 1
118 1 1.9372408043242446e+00 5.3868856059948138e+00 2.2941103543269041e+00 0 0 0
99 1 2.2265757499727790e+00 6.0253492206708605e+00 3.1735893011781400e+00 0 0 0
633 1 2.3246334681874816e+00 6.3879608579252949e+00 1.9099166406005768e+00 0 0 0
3532 2 2.7148256971005376e+00 5.4225442826222228e+00 2.7682405448459857e+00 0 1 0
86 1 2.9363291239726403e+00 5.6021356805697842e+00 1.8621112967705904e+00 0 0 0
1004 1 3.4725060101890364e+00 5.0391199594561984e+00 2.6662385277460912e+00 0 0 1
1994 1 3.9614685848948548e+00 5.7639328454877292e+00 2.1220947804241135e+00 0 0 0
64 1 4.5018798824621369e+00 5.1530122739251416e+00 2.8348322403001229e+00 0 0 -1
875 1 3.2348936860721023e+00 6.0624436113501785e+00 2.7594573720730682e+00 0 1 1
157 1 4.3986614031034081e+00 6.1890889642411668e+00 2.9900487793259982e+00 0 0 1
3520 2 3.7779538458290287e+00 5.6013586531314772e+00 3.1873848479614431e+00 0 0 0
1139 1 4.7688426819359391e+00 4.9838802824337618e+00 1.6769973011576189e+00 0 0 0
3037 1 5.1310617368012359e+00 5.8823395982156699e+00 2.2117997629767152e+00 1 0 0
525 1 5.9270895397078505e+00 5.0630272577543636e+00 1.6506116114315570e+00 0 0 0
4053 2 6.1781040810167873e+00 4.7327066032429252e+00 2.4085963305939395e+00 0 0 -1
827 1 6.1778502400180235e+00 5.5779973509477427e+00 2.6272944503095124e+00 0 0 0
3575 2 6.4097594490768390e+00 6.2221387251021589e+00 3.1412795098553481e+00 0 1 0
1083 1 7.9368103135191488e+00 4.9389360139656260e+00 3.1508395491617454e+00 0 0 0
662 1 6.8635348845636335e+00 5.5731226364513571e+00 1.8397854201952881e+00 0 0 1
635 1 6.9838485708886493e+00 4.8878380765427671e+00 2.7754458618888962e+00 0 0 0
579 1 7.2549478718768734e+00 5.9348684244831631e+00 2.9646486287197846e+00 0 0 0
1628 1 7.9804776288190737e+00 5.5886342029334122e+00 2.1923006195402692e+00 0 0 0
3475 2 8.0631756768584211e+00 5.8240122395666605e+00 3.2474750290914840e+00 0 0 -1
724 1 4.1534410444770407e+00 9.3872205327664098e+00 4.1033124610256335e+00 0 0 0
1040 1 8.9823299089501578e+00 6.0990867801192268e+00 1.8327905539187490e+00 0 0 1
3304 1 2.5035474837614591e+00 7.4494120990407380e+00 4.7332597611167051e+00 1 0 0
1156 1 8.8627219588028296e+00 5.8112114674420763e+00 2.9184693636495433e+00 0 0 0
2468 1 4.2455192307544459e-01 7.1529391260191995e+00 2.8154796036019025e+00 1 0 0
3347 1 9.4100260047035911e-01 7.2545312936931623e+00 1.9233553354382655e+00 1 0 0
2790 1 1.5890007120056739e+00 6.6723983540294451e+00 2.6481199495674721e+00 1 0 -1
273 1 1.5595275447940999e+00 7.6953466638743580e+00 2.8643927227452064e+00 0 0 -1
3072 1 6.3534871612957788e-01 8.0468613765668593e+00 3.3284861358496753e+00 1 0 0
3920 2 7.9257933569058792e-01 7.8778873710471657e+00 2.4566361627437718e+00 1 0 0
564 1 2.4976798612808149e+00 7.1837981474805632e+00 2.9858470473907910e+00 0 0 0
770 1 1.9873910756573330e+00 7.4081804561563143e+00 1.9597618574145406e+00 0 0 1
4203 2 2.3122053603792185e+00 8.0598360338885158e+00 2.9114481545961870e+00 0 0 0
559 1 2.8226857175107880e+00 7.9060007768085612e+00 2.2641374018617340e+00 0 0 0
3827 2 2.8891851942783497e+00 7.0236110667813136e+00 2.1759050405568079e+00 0 1 1
3256 1 4.3670500006162092e+00 6.5982503838817657e+00 1.6279709474321604e+00 1 0 0
3257 1 3.3639379366158093e+00 6.4762323523105962e+00 1.6759743249444228e+00 1 0 0
3741 2 4.9174598075273659e+00 7.6438999899587925e+00 1.8853409148100619e+00 0 -1 2
2990 1 3.6805085637388850e+00 7.4875263398480500e+00 1.9074527156665670e+00 1 0 0
3855 2 3.9163157878554711e+00 6.5967869790317639e+00 2.3373168427536100e+00 0 0 -1
895 1 4.5673100121931656e+00 7.1512507865139101e+00 2.5035001047923195e+00 0 0 1
1530 1 3.5475989964852110e+00 7.0737253031870608e+00 2.9602656781011789e+00 0 0 1
3638 2 3.6914521494646038e+00 7.9515978938566905e+00 2.6333376730511464e+00 0 0 0
126 1 5.4513242235455612e+00 7.8067541094368842e+00 2.5491121288483956e+00 0 0 0
832 1 5.3645020845465856e+00 6.8700932922128759e+00 1.8628941901799954e+00 0 0 0
556 1 5.3835380467757190e+00 6.5813978998505300e+00 2.9873447143073681e+00 0 0 0
224 1 6.4931790082131942e+00 6.5443673031230656e+00 2.2443905228503773e+00 0 0 0
1602 1 6.2908544574152563e+00 7.5412920074012710e+00 1.9822978226277241e+00 0 0 0
1410 1 6.1510773091015478e+00 7.2100176834099914e+00 2.9606652441982106e+00 0 0 0
1068 1 7.5143217178789197e+00 6.4409119118728269e+00 1.8134182593605854e+00 0 0 0
1160 1 7.3097479685192210e+00 7.0759052865507890e+00 2.6500380528259408e+00 0 0 1
3953 2 8.0891434530899655e+00 7.4572487427437872e+00 2.4401605080455600e+00 0 0 -2
1438 1 8.2038244031963181e+00 6.5762093153008845e+00 2.7019813171402460e+00 0 0 0
2840 1 9.4173527554485457e+00 7.4359686323536014e+00 1.5402684395620152e+00 0 0 0
1539 1 8.5288336880262339e+00 7.0392964576591570e+00 1.6911994959076586e+00 0 0 0
1652 1 8.8548395011544123e+00 7.8566930113871853e+00 2.6674581985211603e+00 0 0 1
1388 1 9.2623589444510195e+00 6.8539289439664737e+00 2.5249125420370242e+00 0 0 1
1260 1 8.4225785010300420e+00 9.5693731740262411e+00 9.7987407839339924e-01 0 0 0
3547 2 8.7702623701150788e+00 7.0196540286228570e+00 3.1747526190376734e+00 -1 1 0
2566 1 1.2529400687488792e+00 9.2497325573888549e+00 1.7085512875927409e+00 1 0 0
18 1 8.3088842562418808e-01 8.3166315632158021e+00 1.7251839152875217e+00 0 0 0
4174 2 4.3001237268173814e-01 9.4195224748277191e+00 3.0379922721361972e+00 1 0 0
742 1 9.5237998696727899e-01 8.7632497032333134e+00 2.5927038153720527e+00 0 0 1
2736 1 9.3899074758879875e-02 3.7677431703183215e+00 3.1788841611755680e+00 1 0 0
774 1 4.3149306036404820e+00 9.4030207372582684e+00 2.4885339181510089e+00 0 0 0
136 1 1.8832246287308037e+00 8.4713781049086787e+00 2.1196914031310072e+00 0 0 0
3964 2 1.8046180525458111e+00 9.1700847604256595e+00 2.5132853354580189e+00 0 0 0
4284 2 2.6904003537378700e+00 8.6916254111687756e+00 1.7605527343001519e+00 0 0 2
2635 1 2.6626785833961670e+00 8.9120095674793305e+00 2.6926783173998934e+00 1 0 0
665 1 6.0249433878016818e+00 8.3823056600640076e+00 3.1022780577323270e+00 0 0 1
3973 2 4.6151019009297860e+00 8.7814623922017550e+00 1.9271800220888442e+00 0 0 -1
144 1 3.5793439197985135e+00 8.6760381214726010e+00 2.0285707893473526e+00 0 0 0
644 1 4.4820706317874750e+00 8.1948571815365927e+00 2.4814777527841336e+00 0 0 1
3269 1 3.7784148651039846e+00 8.7557397528875178e+00 3.0349125328940261e+00 1 0 0
580 1 5.5422982580023250e+00 9.5065141561830551e+00 2.9329024626642891e-01 0 0 1
3815 2 4.9538569498718674e+00 8.1949937602628200e+00 3.1609532329720871e+00 0 1 0
307 1 5.2717554496173866e+00 8.8821049100982705e+00 2.4465518862034710e+00 0 0 0
3583 2 6.0609510097315598e+00 8.4067389207902679e+00 2.1614543391805485e+00 -1 0 1
1016 1 6.2931299398785621e+00 9.2221086574543580e+00 2.4702127305478072e+00 0 0 0
1218 1 1.4209730743323259e-01 4.6791905977904049e+00 1.4013792236094589e+00 0 0 2
3107 1 3.0495814148275713e+00 5.7464878692729338e+00 8.0519729835318701e-02 1 0 1
1752 1 7.7704434289611255e+00 8.3196216846765481e+00 2.6180861073205648e+00 0 0 0
1832 1 6.9115933547575148e+00 8.5270801262346669e+00 2.0696527526802995e+00 0 0 0
1442 1 7.8730591133881349e+00 9.0831937585985365e+00 1.8153395928912370e+00 0 0 0
4279 2 7.3102771498487522e+00 9.2332457427462273e+00 2.3932929808356675e+00 1 0 0
1529 1 6.9871253697766091e+00 7.9076871484756026e+00 3.1582763834253464e+00 0 0 0
2447 1 8.8656862249302364e+00 8.3149016675018075e+00 3.6140569422096656e+00 0 0 0