LAMMPS data file via write_data, version 12 Dec 2018, timestep = 480

4320 atoms
2 atom types

0.0000000000000000e+00 1.9309999999999999e+01 xlo xhi
0.0000000000000000e+00 1.9309999999999999e+01 ylo yhi
0.0000000000000000e+00 9.6549999999999994e+00 zlo zhi
1.9310000000000827e-02 0.0000000000000000e+00 0.0000000000000000e+00 xy xz yz

Masses

1 1
2 1

Pair Coeffs # lj/cut

1 1 1
2 0.5 0.88

Atoms # atomic

3378 1 1.1010357313040868e+00 6.3084210848666722e-01 4.0212915848743591e-01 1 1 1
486 1 1.6866779176979274e+00 6.6763464954303287e-01 1.3034305530517727e+00 0 1 1
979 1 1.3054299002453626e-01 8.1425923775537867e-01 9.1638166025136747e-01 0 1 0
332 1 1.0452329600096602e+00 1.5066807781418736e+00 9.6784832984096292e-01 0 1 0
964 1 2.2504415559229032e+00 6.2501162310425518e-01 3.9615556074386205e-01 0 1 1
790 1 2.5749711334895182e+00 2.1152680017445019e-01 1.4493732017517833e+00 0 1 0
3697 2 1.9046149078460297e+00 1.5129709437102643e+00 7.6320043410300797e-01 1 1 1
135 1 2.7462681954254857e+00 1.3872718509247521e+00 9.6392610892291442e-01 0 1 1
1553 1 4.3290535880815586e+00 7.7678327286217819e-01 4.9800896512024939e-01 0 0 0
4065 2 3.7574752184084064e+00 1.5035197488319139e+00 3.3168557541221694e-01 1 1 1
1198 1 3.2965523740694413e+00 4.5213943099140219e-01 8.3892527469110012e-01 0 0 1
868 1 3.7939047804309469e+00 1.3106748165071560e+00 1.3280326137282203e+00 0 1 0
3422 1 4.3712115442239092e+00 3.0210165412296508e-01 1.4817678272431509e+00 1 1 0
1493 1 4.9187800154746855e+00 1.2907311419753145e+00 1.2471864212244843e+00 0 1 1
4074 2 5.1515225959058970e+00 5.2535975566386206e-01 9.2950731586306135e-01 0 1 1
3203 1 5.3991225006280343e+00 1.0792347623025620e+00 3.1971358641775133e-01 1 0 0
1264 1 6.0631857789219170e+00 1.4033702668883552e+00 1.0808241873789710e+00 0 1 0
376 1 5.9670697660840304e+00 2.3090228371999716e-01 8.1167392963406471e-01 0 1 0
3758 2 6.2936142494089538e+00 6.5742134442782263e-01 1.6469085567560369e+00 0 0 1
663 1 6.8684760533191360e+00 7.4079650407424258e-01 1.0303412686835023e+00 0 0 0
963 1 6.7139698415594280e+00 1.2911856818006426e+00 1.7799340665765151e-01 0 1 1
4222 2 6.6424873902245007e+00 4.5485890116928956e-01 2.4459553758416158e-01 1 0 -1
3797 2 7.5797705994378788e+00 2.2647063419478908e-01 1.1516021208700224e+00 0 1 -1
1252 1 7.4801125770653227e+00 4.2563746897704297e-01 2.7045130191275879e-01 0 1 1
2154 1 7.7495575702121560e+00 1.0173113695461404e+00 1.4342647120605414e+00 0 0 1
4078 2 8.1197596539569421e+00 1.1482244310177656e+00 4.2263803017549645e-01 0 1 0
1783 1 9.4417586431429346e+00 4.6899741363233205e-01 1.0245830081451766e+00 0 1 0
1177 1 8.9148181482463116e+00 1.3749192390641694e+00 7.3854905347886857e-01 0 0 1
2805 1 8.4301760474884979e+00 4.5749627747624450e-01 7.4212520123479930e-01 1 1 1
4186 2 9.6478954651485989e+00 1.2095121179475681e+00 1.3679302636718891e+00 0 1 1
3709 2 5.6957500722071304e+00 9.2238102201498640e-02 6.3332414210304329e+00 0 1 0
3903 2 9.1328957909138460e+00 4.6237603781517445e-01 1.6165925856352853e-01 0 1 -1
3522 2 1.9940907202899705e-01 1.6702218539869627e+00 8.0952391168022819e-01 0 0 0
2926 1 1.4444629436667034e+00 2.4086256415958034e+00 4.4590873118951196e-01 1 1 1
2794 1 4.1047496675124912e-01 2.5001516373405850e+00 9.1574740006643740e-01 1 0 0
3597 2 8.9491845329534747e-01 3.2632228540804187e+00 1.5502986710814477e+00 0 1 0
165 1 6.3657761808305280e-01 2.3547681309379227e+00 9.4714901643403273e+00 0 0 0
885 1 2.3780819006485405e+00 2.5638879881236507e+00 8.7207184227099444e-01 0 1 1
2711 1 2.4363825889110911e+00 1.9250046491287698e+00 1.3297590374823656e-01 1 1 1
512 1 1.6032891100170708e+00 3.2219801817003693e+00 1.1565538513553382e+00 0 0 0
3535 2 3.1998039526604800e+00 3.0823177583972967e+00 1.0772663411230912e+00 0 1 0
1554 1 3.1385223162407327e+00 3.0604238883492800e+00 1.5836538877420020e-01 1 0 0
3224 1 4.5098610006787689e+00 1.8457164207485666e+00 4.2916561115345175e-01 1 1 0
1822 1 3.5158798392200339e+00 2.2713821367204452e+00 7.7019260724522376e-01 0 1 0
1031 1 4.7082546459582657e+00 2.5248504857173613e+00 1.2098295180411003e+00 0 0 0
3604 2 4.0761692137723848e+00 2.5354322563208092e+00 1.2910358735477631e-01 0 0 0
4308 2 4.4275374569777250e+00 1.8624361732068353e+00 1.7500294639539977e+00 0 0 1
640 1 4.8830175203097763e+00 2.9440005781449980e+00 1.7838859262427020e-01 0 0 1
1704 1 5.9701825314179926e+00 3.1060937682320549e+00 2.6910701628245187e-01 0 0 1
3626 2 5.9822329371588436e+00 1.7960635508746268e+00 1.4015015847598286e-01 0 0 0
100 1 5.7912308096678125e+00 2.9968391075687295e+00 1.3196348259882171e+00 0 0 0
951 1 5.4810296446264859e+00 2.1992553861878537e+00 6.8529100926326580e-01 0 1 1
1055 1 7.5092093418859909e+00 1.7132130687821228e+00 7.1297831880035978e-01 0 0 0
3784 2 6.8523514082917671e+00 1.5035090287084205e+00 1.4084348079683868e+00 0 0 -1
629 1 6.6309311557576454e+00 2.2959175806789043e+00 6.1726263161480788e-01 0 0 0
1563 1 7.5281968547568674e+00 2.6090975928911586e+00 1.3166102795490244e+00 0 0 0
576 1 8.1340573085632784e+00 3.1954544658420985e+00 4.4472978155574017e-01 0 0 0
1632 1 8.2865553596188573e+00 1.8659931202288293e+00 1.4314554257952288e+00 0 0 0
3737 2 8.1767458825277863e+00 2.3467895995341621e+00 7.1799138479127111e-01 1 1 0
3175 1 9.0447374051151126e+00 2.3768006791516272e+00 6.1621661225338120e-01 1 0 1
1395 1 8.5729191487535328e+00 2.8595234332403545e+00 1.5191816409637406e+00 0 1 1
3814 2 8.8860454449628978e+00 3.0333339163740733e+00 1.0215709271734843e-02 -1 0 2
1104 1 8.3265485637711567e+00 1.8979653972380373e+00 2.4065491780084644e-02 0 0 0
3383 1 7.9395347491645052e-01 3.3013811104860165e+00 3.0530831812454401e-01 1 0 1
547 1 1.1369554437491591e+00 4.0474721178327995e+00 1.3231155311106533e+00 0 0 1
2997 1 4.0521657464270328e-01 4.2540765421927844e+00 4.4568160263584022e-01 1 0 0
72 1 1.5925053826667506e+00 4.1891047123575182e+00 4.2469448872121413e-01 0 0 0
305 1 1.4203579304506703e-01 3.5268261304637476e+00 1.2170922282526808e+00 0 1 -1
187 1 2.0426852861902236e+00 3.2031965601348347e+00 5.0018484035451699e-02 0 0 0
2007 1 1.9477323337883261e+00 4.8246892501435585e+00 1.3003247248117378e+00 1 0 0
201 1 2.5803029985712196e+00 4.1751345095125538e+00 8.7885333790159559e-02 0 0 2
3150 1 2.5963142266150636e+00 3.7637268491086942e+00 1.0250945099955806e+00 1 0 0
1485 1 4.0381190549525208e+00 3.1919730383861218e+00 7.4353092360288764e-01 0 1 1
380 1 4.6481690174072661e+00 3.9808097120944907e+00 3.1272853556006397e-01 0 1 1
34 1 3.5936090809440264e+00 4.0736782422742470e+00 5.0595866706318604e-01 0 0 0
1056 1 4.6552852003330605e+00 3.9203520355078894e+00 1.3426343723245415e+00 0 0 0
965 1 3.5711368565966426e+00 3.7039523692190315e+00 1.5772379179752154e+00 0 0 1
3915 2 5.2799746796474132e+00 3.4749765525379201e+00 7.2227701576171999e-01 0 1 1
555 1 5.4246946941122820e+00 4.6470263165898276e+00 6.1681084588835733e-01 0 0 0
1214 1 6.1856204839279467e+00 3.9787559917973758e+00 8.0611514520037009e-01 0 0 1
910 1 5.7644198056381359e+00 3.9813707869868620e+00 1.8152574065976932e+00 0 1 0
810 1 7.0966707399189115e+00 3.2647370267421110e+00 5.6434031964325204e-01 0 1 1
3493 2 6.6260085926438874e+00 4.6900663443669925e+00 9.5631705416761630e+00 0 0 -2
981 1 7.3270967663821072e+00 4.3189238258898026e+00 2.4643486567003758e-01 0 1 0
3546 2 7.0378662017152562e+00 3.9716508277623208e+00 9.8402999484547393e-01 0 0 1
2081 1 7.8281754004193047e+00 3.7192570522380239e+00 1.3228463575000378e+00 0 0 0
2050 1 6.7850212684970623e+00 3.3210323170484437e+00 1.5277609961857830e+00 0 0 0
1503 1 7.0687906768226023e+00 8.4389932815523583e+00 5.4093214557726629e-02 0 0 0
639 1 9.0516556496915381e+00 3.5827175914941165e+00 7.8045112579081122e-01 0 0 0
1153 1 9.3920968383469550e+00 4.5776099806725190e+00 1.0368140452599239e+00 0 0 0
1946 1 8.3639501775074230e+00 4.3390386766280553e+00 6.2667086375521330e-01 0 1 0
3094 1 1.0454233292931960e+00 5.0015857079550923e+00 8.2495612289151854e-01 1 0 0
2010 1 1.0317257880297932e+00 5.9638277587596793e+00 5.5556486375158332e-01 1 0 0
3569 2 1.8607919879424509e-01 6.2638711096281261e+00 5.2159697443656661e-01 0 0 2
705 1 9.6476224581966274e+00 4.0563641265608954e+00 1.3386713692012195e-01 0 0 0
2717 1 1.9362318485773372e-01 5.3673785338701077e+00 1.8294313128533893e-01 1 0 0
4081 2 1.9102675136823977e+00 6.2410969654479311e+00 5.9652076607848570e-01 1 1 0
1976 1 1.6509908473730053e+00 5.7612176019742734e+00 1.4068439237949051e+00 0 0 1
2670 1 1.9877362804860521e+00 5.3902834978844023e+00 3.1257127691048847e-01 1 0 1
1042 1 2.5383267033438388e+00 6.0418060492461203e+00 1.0532313515344316e+00 0 0 1
1233 1 2.8409723159788389e+00 4.9372373877840632e+00 7.5287364699953163e-01 0 0 1
3107 1 3.0155261219223601e+00 5.7925889268374249e+00 1.2740009767046293e-01 1 0 1
3059 1 3.7575789598253180e+00 4.7580791270144918e+00 1.4415650713805666e+00 1 0 0
2654 1 4.3537896796342608e+00 4.9274269572137532e+00 5.8605739772252929e-01 1 0 1
138 1 3.7781187795119511e+00 5.8595952553826676e+00 9.5022338805071027e-01 0 0 1
3671 2 3.5483932015547217e+00 5.0714595227669355e+00 3.4657427917706979e-01 0 0 1
3034 1 5.0048599546127965e+00 5.7882217667700386e+00 1.1202048017744486e+00 1 0 0
3971 2 5.7562900423655403e+00 5.4860197525178140e+00 7.8689727462120762e-01 0 0 0
146 1 6.4775286187050529e+00 6.0044756307882707e+00 4.1265159584749156e-01 0 0 0
655 1 6.1304444192704963e+00 5.9796236335791244e+00 1.3819346385853331e+00 0 0 0
206 1 5.9638127328986617e+00 5.2143203593870435e+00 9.5768647647865155e+00 0 0 0
2653 1 7.5760539052300864e+00 4.7675405496584391e+00 1.1693561721896888e+00 0 0 1
537 1 6.6284196227719363e+00 4.9582889461289685e+00 7.2802998123741047e-01 0 0 0
80 1 7.5304117840201270e+00 5.7666783486530662e+00 9.2403180842213750e-01 0 0 -1
4073 2 8.2374794286986912e+00 6.0995611384050061e+00 1.5825290974062607e+00 0 0 0
3679 2 8.0401052802128543e+00 5.1587243886726490e+00 5.0493258321998558e-01 0 1 2
1626 1 9.4601701272231420e+00 6.0228679122121687e+00 6.8832793442099097e-02 0 0 0
2357 1 9.0684761293225549e+00 5.1012248510829670e+00 2.0539804905242895e-01 0 0 0
1821 1 9.3904000223803035e+00 9.6235074009520076e+00 9.4489278601401985e+00 0 0 -1
2497 1 8.6253836200303766e+00 5.8043582543195225e+00 7.8755722907330594e-01 0 0 0
1215 1 8.5542223890704623e+00 5.0124166222632054e+00 1.4032013601623243e+00 0 0 1
12 1 1.0911502347851902e-01 7.7889358740841805e+00 1.1346701516636568e+00 0 0 0
626 1 1.4941802474261696e+00 6.9384013867436956e+00 3.0713956316734131e-01 0 0 0
1077 1 6.6743823151411308e-01 6.7904372345765012e+00 1.0469138905526032e+00 0 0 0
17 1 1.3499693928840142e+00 7.7013756450630391e+00 1.1513936682554342e+00 0 0 1
516 1 3.6323558727928329e-01 7.2704372195056184e+00 1.1018608353702143e-01 0 0 0
2250 1 1.7035791245440053e+00 6.7599800709735449e+00 1.3446678698471466e+00 1 0 0
2303 1 2.2023514534002424e+00 7.8361270487811785e+00 5.1675184697594512e-01 1 1 0
3731 2 2.1560031167124576e+00 7.7746089056256444e+00 1.4826504441025530e+00 0 0 0
759 1 2.5244469737231068e+00 6.7567914881027802e+00 2.4390113355286505e-01 0 0 1
1830 1 2.6520950511847259e+00 7.1073379373423649e+00 1.2379897783182512e+00 0 0 0
1140 1 3.2462706982915694e+00 7.6236346460159892e+00 2.1257557833709154e-01 0 0 0
961 1 4.4922656539727850e+00 6.5063415837950993e+00 3.5009782676931567e-01 0 1 1
3878 2 3.2273377773899177e+00 6.5301616654417005e+00 7.7040235261467194e-01 0 0 2
543 1 3.8166483161625169e+00 7.1815353956534116e+00 9.5164538675389487e-01 0 0 1
43 1 4.4645441313759360e+00 7.8999674612822055e+00 2.3310872444171618e-01 0 0 0
985 1 5.5186049314933241e+00 6.5333325709703702e+00 6.3483472467302116e-01 0 0 1
270 1 4.9374247203513377e+00 7.2642770564224186e+00 9.2452776208650778e-01 0 0 0
1191 1 6.4707535254960460e+00 7.8732529703909542e+00 8.5707840191704243e-01 0 0 0
4287 2 5.8601636706934306e+00 7.2819018726867304e+00 1.1148342801511899e+00 0 0 0
1694 1 6.3420955610425205e+00 7.0225785119943511e+00 2.0408427580030536e-01 0 0 1
1963 1 5.5922369331902422e+00 7.9252898341946301e+00 1.7509072465173978e-01 0 0 1
3539 2 7.2344653589879364e+00 6.4859467235423569e+00 5.4189050378341153e-01 0 0 1
1101 1 8.0299341741144357e+00 6.6824901300712405e+00 8.2677134557671295e-01 0 0 1
1364 1 7.2926532201229035e+00 7.3759310112365233e+00 3.0656853655111926e-01 0 0 0
1222 1 6.7409733570879427e+00 6.8165790466905802e+00 1.0865985162370864e+00 0 0 0
1980 1 7.6037686824575976e+00 7.4068300869961607e+00 1.4833480064055968e+00 0 0 0
3871 2 6.5054356708215657e+00 7.7844107133720142e+00 9.5224638356665494e+00 0 0 -1
2416 1 8.5999621827664239e+00 7.5550510638914377e+00 7.8327157320882634e-01 0 0 1
551 1 9.2294249947875233e+00 6.7158928455334639e+00 8.2438314681105651e-01 0 0 0
4230 2 8.6563082682092372e+00 6.5646169631258582e+00 2.3859020215639010e-01 1 0 0
1784 1 9.0702927338246884e+00 7.2812626530933002e+00 9.5865906452250016e+00 0 0 -1
646 1 8.2870624748765453e-01 8.5088748723154968e+00 7.7657934519976990e-01 0 0 1
3126 1 3.0648469346531748e-01 9.2462826342336832e+00 1.2589894276948226e+00 1 0 1
571 1 1.2873824958726006e+00 9.4566941669770301e+00 6.3177410249212951e-01 0 0 1
121 1 1.9417027997036129e+00 8.6279588402908107e+00 1.1492477946919917e+00 0 0 0
2833 1 2.7679843008151606e+00 8.6562143167644034e+00 3.7560913271748947e-01 1 0 1
959 1 3.0227979031417616e+00 8.0950177965272943e+00 1.1647042915349100e+00 0 0 0
998 1 3.2287819568878211e+00 9.2189034705798019e+00 1.2140768206208601e+00 0 0 1
3917 2 6.2106619199806046e+00 8.9027499139535369e+00 8.2936764786997088e+00 0 0 -1
645 1 4.2962273246736515e+00 8.1295430727822549e+00 1.2749980740157665e+00 0 0 1
203 1 3.8018120303008951e+00 8.7704198531286508e+00 5.2553082428582198e-01 0 0 1
3861 2 2.4375500861192214e+00 9.5381825863774043e+00 7.6564881075451670e+00 0 0 -1
228 1 5.4877504040937586e+00 9.2125303711306401e+00 1.4057252177184578e+00 0 0 0
2263 1 4.9621767431112636e+00 8.7104941636302335e+00 6.5395346862417958e-01 0 0 0
1120 1 5.4320701557844906e+00 8.0272350413319984e+00 1.4230506541960986e+00 0 0 0
3064 1 6.0666064815473897e+00 8.8068636425216216e+00 5.9187550510554754e-01 1 0 0
204 1 6.3930494377496352e+00 8.6221825262854566e+00 1.8858218244479414e+00 0 0 0
580 1 5.4578339735169754e+00 9.6030420123907287e+00 3.5562281205672636e-01 0 0 1
3629 2 7.3973038924570957e+00 7.9948876837735368e+00 8.7983251895682490e-01 0 0 0
1613 1 7.0574534062832575e+00 8.8107286248441632e+00 1.0934324461813916e+00 0 0 1
2757 1 7.6979263142793819e+00 9.3155907882985236e+00 3.3969318432823442e-01 0 0 0
3889 2 7.5800256770976731e+00 9.5441813844054924e+00 1.2541458292309580e+00 0 -1 1
2626 1 8.0353110219648105e+00 8.5317619269620888e+00 1.0160096385766098e+00 0 0 0
1908 1 9.2105689748723982e+00 8.4470017919488249e+00 9.5285317354081223e-01 0 0 0
4241 2 9.1771965053222093e+00 9.3498409692671558e+00 8.4919881547027409e-01 0 0 1
2165 1 9.4911069966761552e+00 9.3378300727928139e+00 1.6527486190881868e+00 0 0 1
1362 1 8.7008980449437967e+00 9.0083311441249787e+00 1.7507252274073587e-01 0 0 0
1526 1 9.5435347753847850e+00 8.3507200347633344e+00 3.4819074985174989e-02 0 0 1
2551 1 7.3930976674876281e-01 5.2757247915725425e-01 1.7453998775039752e+00 1 0 0
3279 1 1.1543699603891555e+00 5.8207670508597209e-01 2.7963853657767705e+00 1 1 0
597 1 1.1902146071310999e+00 1.4039330187531422e+00 2.1231102955092491e+00 0 0 0
993 1 6.7446068075367360e-01 1.4501620939336357e+00 3.1494187281628885e+00 0 1 0
78 1 2.6066912318162944e-01 1.7128989112039874e+00 1.7207540489574540e+00 0 0 0
3205 1 1.5760387796537005e+00 2.4498851613978773e-02 9.2587808296911813e+00 1 0 0
3011 1 2.0751506620614433e+00 1.6669836924146995e+00 1.6434355468475830e+00 1 0 0
2595 1 2.0980440504879945e+00 6.7923245309970592e-01 2.2984273757500162e+00 0 0 0
2565 1 1.7303483234148762e+00 1.4417704619012128e+00 3.0326813577089617e+00 1 0 0
1262 1 2.7327228028256969e+00 1.5360833423507549e+00 2.6273951888054197e+00 0 1 0
950 1 3.1706462826883675e+00 8.6486666529256551e-01 2.0499610363929603e+00 0 1 0
1238 1 3.0322923117077365e+00 6.0144803206629260e-01 3.0360213056652507e+00 0 0 0
4130 2 4.0315224984437901e+00 8.2293218904187138e-01 2.0917063534742422e+00 0 0 -1
3430 1 4.7239278846103172e+00 1.3491992815811089e+00 2.3986928864683263e+00 1 1 1
3272 1 4.0784284208935722e+00 8.7929534964967571e-01 3.0349555537177602e+00 1 1 0
416 1 4.8365964711955822e+00 3.5582767911725988e-01 2.6847706915429028e+00 0 1 1
1875 1 5.4690847562423750e+00 6.2883951761974444e-01 1.8208578121297450e+00 0 1 1
3905 2 5.5309423842840157e+00 1.0179987925604341e+00 2.5954265458405263e+00 1 1 0
2405 1 6.2252723647003645e+00 1.3579958727264592e+00 2.1534047291583343e+00 0 1 0
27 1 6.0875951101702190e+00 3.2018038697487344e-01 2.5845960662876841e+00 0 1 0
2689 1 6.1533150095109415e+00 1.0665215030835620e+00 3.2915980156193552e+00 1 0 0
3459 2 7.0930320085477643e+00 1.2454819058984827e+00 2.6849374343342274e+00 0 0 0
1032 1 7.0428014097490701e+00 5.9063796401532698e-01 2.0640152383129675e+00 0 0 0
820 1 8.0138189930332704e+00 1.1813642019129977e+00 2.4909988896304314e+00 0 1 0
1722 1 7.8696708527543997e+00 1.2502617023662965e-01 2.5621273495251131e+00 0 0 1
1863 1 8.8312096227080303e+00 9.9249357618299328e-01 1.7055404993477514e+00 0 1 0
1231 1 8.8912400389509987e+00 4.3416537799426436e-01 2.6232642919536215e+00 0 0 1
3639 2 8.7924697761503854e+00 1.3556348834019372e+00 2.8302244808232504e+00 0 0 1
584 1 9.5656009849822272e+00 1.3473067570403241e+00 2.4781891781563301e+00 0 0 0
89 1 1.1658911919519164e+00 2.3096110648531800e+00 1.6088183344422913e+00 0 0 -1
4236 2 2.5694300248974361e-01 1.9313281607691219e+00 2.5787503456175664e+00 1 0 0
1234 1 2.9712467129115117e-01 2.7337630458733209e+00 1.9903341353939012e+00 0 0 0
2910 1 1.0300592860906306e+00 2.2958364065981005e+00 2.7297634164561235e+00 1 0 1
4068 2 7.4232470214844759e-01 3.1503017676495979e+00 2.7228563068020484e+00 1 0 -1
1647 1 1.4721070096635476e+00 3.1513844562641058e+00 2.1893196307152003e+00 0 0 0
1590 1 9.5963441608355300e+00 8.0018644334082616e+00 7.4080113512349302e+00 0 0 0
288 1 2.5667605960664663e+00 3.1273644432484149e+00 1.8880019752761019e+00 0 1 0
3586 2 1.9994899236905899e+00 2.4823282419406456e+00 1.6995325067237717e+00 0 0 1
636 1 2.1010620390149817e+00 2.3469414079758986e+00 2.5149549836167147e+00 0 0 0
3377 1 3.1732514517720465e+00 2.5575140801848573e+00 2.6255173879434888e+00 1 1 1
3319 1 2.9725308846246117e+00 2.1454531665339358e+00 1.7081683956232605e+00 1 1 0
3952 2 4.6189192595555726e+00 1.7114925608421765e+00 3.0969058255152135e+00 1 1 0
1123 1 3.7220546002353596e+00 1.7131490275372598e+00 2.3112986202104495e+00 0 0 0
538 1 3.8554168744881845e+00 2.5974039082483986e+00 1.7675303891067251e+00 0 0 0
610 1 4.6160946067780717e+00 2.3410656228755986e+00 2.4841772728870137e+00 0 0 0
4097 2 4.9974549395672856e+00 2.9386320506607224e+00 2.8971100499961673e+00 0 0 1
527 1 5.4242143149823114e+00 2.0445508457768469e+00 1.8224299608216841e+00 0 0 0
427 1 6.4889398808657655e+00 2.2869313021563626e+00 1.6826139965279328e+00 0 1 0
699 1 5.5552981354965949e+00 1.8854538017684364e+00 2.8366896709963769e+00 0 0 1
1026 1 5.9828574832069137e+00 2.9003033315172031e+00 2.3525264971409432e+00 0 0 0
354 1 7.3552882878354833e+00 1.8515174064480804e+00 2.0353499421793533e+00 0 1 0
4141 2 7.8103757452692619e+00 2.5439495198970739e+00 2.0949295382310043e+00 0 2 0
2060 1 6.6498237603389967e+00 2.0453542468948522e+00 2.9218365711747327e+00 0 0 0
753 1 7.0283925460869208e+00 2.8463136126811057e+00 2.3902035445425067e+00 0 0 1
2422 1 7.7316450429740167e+00 2.3769599399153973e+00 2.9968866475547888e+00 0 1 1
1250 1 9.3587171641388309e+00 2.0808122012587167e+00 1.5911452890586897e+00 0 1 0
706 1 8.5159479192545913e+00 2.1133727355512963e+00 2.3916370726825109e+00 0 0 0
303 1 9.5182438859591585e+00 2.4862352422988452e+00 2.7088775116856101e+00 0 1 0
3921 2 8.8876866891139255e+00 2.9459920760847029e+00 2.3508005865790027e+00 0 1 -1
3124 1 9.5389638728442403e+00 3.1476430706161009e+00 1.7852779345838532e+00 0 0 1
1218 1 1.8371483810292860e-01 4.5693480398702304e+00 1.5066861930193429e+00 0 0 2
1294 1 5.6947656219347642e-01 3.7992488534861595e+00 2.2149491387275910e+00 0 1 0
589 1 6.5961629863253490e-01 4.6197315294707177e+00 3.0545618874389557e+00 0 0 0
2736 1 1.2031242208823306e-01 3.6291067508425954e+00 3.1851095525666424e+00 1 0 0
402 1 1.2186026658152429e+00 3.7121614444437756e+00 3.1584231066742050e+00 0 0 0
3556 2 2.0571764966877089e+00 3.7590053874009146e+00 1.7224844574388050e+00 0 1 1
613 1 2.2144009593233918e+00 3.6071299778840480e+00 2.9361072527433403e+00 0 0 -1
2897 1 1.6507890444367248e+00 4.2605844510331634e+00 2.2927352917887411e+00 1 1 1
2002 1 2.5116993741953566e+00 4.6257062145354615e+00 3.1026171923456696e+00 1 0 -1
256 1 2.7133889174597567e+00 4.3944153925769367e+00 1.8306613508014553e+00 0 0 0
1433 1 4.0632245592300009e+00 3.2156127656855378e+00 2.6521001665842090e+00 0 1 0
3153 1 3.1789951016726983e+00 3.8091813434956401e+00 2.6316390807623269e+00 1 0 1
1288 1 4.3200770369005808e+00 4.1753881371756085e+00 2.2790808596984258e+00 0 1 0
1181 1 5.0847269929963916e+00 3.2911604548637787e+00 2.0712086128487872e+00 0 0 0
3295 1 5.3841923340054061e+00 3.8494410174304430e+00 2.9900588644513393e+00 1 1 0
2213 1 5.3341766433820164e+00 4.7242435977144845e+00 2.4420130767584531e+00 0 0 1
2427 1 6.4934020188664121e+00 3.7828710712735565e+00 2.5999640318705310e+00 0 1 0
4235 2 8.0198412962883463e+00 3.1901351344283757e+00 3.2364495987673561e+00 1 0 -1
649 1 6.7568256655989343e+00 4.3224982648683961e+00 1.6475358692412310e+00 0 0 1
3508 2 7.3517688995279435e+00 3.6335144471187588e+00 2.1346987448284631e+00 0 1 1
1639 1 7.8552698962542706e+00 4.4161292836871793e+00 2.1440635469566423e+00 0 0 0
1277 1 7.4905468063154741e+00 3.8600471476392282e+00 2.9816791920234142e+00 0 0 -1
1536 1 8.0879546806040867e+00 3.3149070576150481e+00 2.3700108812084841e+00 0 0 0
3869 2 8.3997880706015788e+00 4.0939928811467956e+00 2.8660840910686343e+00 0 0 -1
533 1 8.7853772215735848e+00 3.9943439127400473e+00 1.7888461631847523e+00 0 0 0
1158 1 9.1363501089893120e+00 3.6665241111313081e+00 2.7508786757815726e+00 0 0 0
1035 1 8.8482450622359288e+00 4.8831362228818733e+00 2.4104233344366626e+00 0 0 1
1347 1 8.5431539754236874e-01 6.2256168871154838e+00 1.9483058522865979e+00 0 1 -1
3764 2 1.6720431790977423e-02 5.1975356593686435e+00 2.3050666699708366e+00 0 0 2
3095 1 9.4152133957206730e-01 5.1426075636622759e+00 2.0482055020400916e+00 1 0 0
829 1 5.7667186654826075e-01 5.7217342119747832e+00 2.8704708368512404e+00 0 0 0
3608 2 1.4322624709058869e+00 5.7234512963991184e+00 2.4926328992979156e+00 0 0 0
119 1 1.6055499404754741e+00 5.1910747785579163e+00 3.1781982406654916e+00 0 0 1
118 1 2.0479806388145367e+00 5.2049863377371643e+00 2.2179906222134598e+00 0 0 0
99 1 2.2062775436897240e+00 6.0193966240637735e+00 3.1187269985001960e+00 0 0 0
633 1 2.2789992759391948e+00 6.2383914808621661e+00 2.0873865573014676e+00 0 0 0
3532 2 2.7646094565727957e+00 5.4046734451128149e+00 2.6602449919315170e+00 0 1 0
86 1 3.0214747028225819e+00 5.4702148775979849e+00 1.7175205851734738e+00 0 0 0
1004 1 3.4507695248950077e+00 4.9792060597771624e+00 2.5937148675828872e+00 0 0 1
1994 1 4.0388257594557606e+00 5.7085029057413426e+00 1.9948761527578789e+00 0 0 0
64 1 4.4700975596592967e+00 5.1947891371851398e+00 2.7443976198817115e+00 0 0 -1
875 1 3.2161910145664412e+00 6.1365094653318248e+00 2.6367284323409499e+00 0 1 1
157 1 4.3916126103293474e+00 6.2356169270806587e+00 2.9017113889465591e+00 0 0 1
3520 2 3.7881851301217235e+00 5.6411123210395289e+00 3.0978260442512164e+00 0 0 0
1139 1 4.8622791118831916e+00 4.8803387331830024e+00 1.6050246293070707e+00 0 0 0
3037 1 5.2052186833820482e+00 5.8428378726737860e+00 2.1611947107715164e+00 1 0 0
525 1 5.8833835737677678e+00 4.9885901730402162e+00 1.4896226669901045e+00 0 0 0
4053 2 6.2587619616110581e+00 4.5843177262640857e+00 2.2620723565061573e+00 0 0 -1
827 1 6.1119800246514950e+00 5.4440795245368721e+00 2.4543046801110719e+00 0 0 0
3575 2 6.3719534161497373e+00 6.1774399612126061e+00 3.0537465760120872e+00 0 1 0
1083 1 8.0626089509510859e+00 4.9991099209977827e+00 3.1930459157178777e+00 0 0 0
662 1 6.8944342527935376e+00 5.3731755638652929e+00 1.8512029442630120e+00 0 0 1
635 1 7.0014750147308700e+00 4.8069043622939152e+00 2.7303931763049656e+00 0 0 0
579 1 7.1635058650888483e+00 5.8411069049937305e+00 2.7490687862719083e+00 0 0 0
1628 1 7.9474434522785646e+00 5.4982440192577640e+00 2.2109573825009883e+00 0 0 0
3475 2 7.9082512750767693e+00 5.9380136710270985e+00 3.2461733017538856e+00 0 0 -1
3247 1 3.7556993556067093e+00 3.5419814924098174e-02 2.4689557631136214e+00 1 1 0
1040 1 9.0190670172455896e+00 5.9544689483282198e+00 2.0122277250944736e+00 0 0 1
3039 1 4.9875628558833013e-02 5.1632409076722947e+00 8.1189950477817554e+00 1 0 -1
1156 1 8.7691314533315445e+00 5.8983814931036047e+00 2.9852090002564005e+00 0 0 0
2468 1 3.5071424863052286e-01 6.8317416645295967e+00 2.7561173084889847e+00 1 0 0
3347 1 8.6096437632386735e-01 7.2956570988210689e+00 1.9788236660854950e+00 1 0 0
2790 1 1.4014731940020668e+00 6.6003329676685167e+00 2.7413343913312831e+00 1 0 -1
273 1 1.4824611233922451e+00 7.6214114240167348e+00 3.1192140242931234e+00 0 0 -1
3072 1 5.2856092142164646e-01 7.9604938268721925e+00 3.0338990729569977e+00 1 0 0
3920 2 1.2815251421966329e+00 7.9665505240631633e+00 2.3865020157909487e+00 1 0 0
564 1 2.4080891177065742e+00 7.0374348051632563e+00 3.0899647476119649e+00 0 0 0
770 1 1.9244013906536455e+00 7.3221679540668037e+00 2.2290820735700372e+00 0 0 1
4203 2 2.2565987267259082e+00 7.8535352426925797e+00 2.9155866548790845e+00 0 0 0
559 1 2.8017502885999526e+00 7.8420907619832327e+00 2.1101304021325604e+00 0 0 0
3827 2 2.8804583085748616e+00 6.9705452851806591e+00 2.2884123207077405e+00 0 1 1
3256 1 4.4219551888378286e+00 6.6313507529194400e+00 1.6518501384953701e+00 1 0 0
3257 1 3.3413246615666110e+00 6.5152893651430226e+00 1.6316370949958234e+00 1 0 0
3741 2 4.8005629242128212e+00 7.4555103596286187e+00 1.7638588886440985e+00 0 -1 2
2990 1 3.7558307355431522e+00 7.4137754636772444e+00 1.9492912652502652e+00 1 0 0
3855 2 3.8396300985767895e+00 6.5749613409638723e+00 2.2965153299496222e+00 0 0 -1
895 1 4.5556156109877906e+00 7.2283229089120367e+00 2.5421820856698316e+00 0 0 1
1530 1 3.6000809577228519e+00 7.0785863876691852e+00 2.9653594769419569e+00 0 0 1
3638 2 3.7755739597781974e+00 7.9096719139493308e+00 2.6467015307194051e+00 0 0 0
126 1 5.5165652274068160e+00 7.5389439328683796e+00 2.4417050834108052e+00 0 0 0
832 1 5.4791737714526834e+00 6.7841958738126893e+00 1.7511109368608644e+00 0 0 0
556 1 5.3784028660095249e+00 6.5677025315986173e+00 2.9211201583326001e+00 0 0 0
224 1 6.3857693085201310e+00 6.4231602463391031e+00 2.2613906275266387e+00 0 0 0
1602 1 6.4248986545535782e+00 7.5226491886449098e+00 1.8505273767859949e+00 0 0 0
1410 1 6.2879633901984491e+00 7.2183120299477066e+00 3.0176341102693942e+00 0 0 0
1068 1 7.3556672827822940e+00 6.3339716461979716e+00 1.7510013701155078e+00 0 0 0
1160 1 7.2339464468894743e+00 7.2960887200035440e+00 2.4351604039999737e+00 0 0 1
3953 2 8.0197676236145021e+00 7.5537528394297047e+00 2.2822368538899687e+00 0 0 -2
1438 1 7.9922493488753021e+00 6.5726268862052244e+00 2.6622753897571259e+00 0 0 0
2840 1 9.4932207623393996e+00 7.4193523319347676e+00 1.4962611837281650e+00 0 0 0
1539 1 8.5180682195838759e+00 6.9530492266847324e+00 1.7856646529041813e+00 0 0 0
1652 1 8.7893209293546128e+00 7.7254313055347037e+00 2.6648321104974264e+00 0 0 1
1388 1 9.3171428837672110e+00 6.8222378057351269e+00 2.5370645578033999e+00 0 0 1
681 1 6.8736370247218117e+00 9.3913184628487265e+00 9.1133202278607186e+00 0 0 0
3547 2 8.7707209820876173e+00 7.0084475025493385e+00 3.1737293379193585e+00 -1 1 0
2566 1 1.3145176970057793e+00 9.2650255306500249e+00 1.7395552479826935e+00 1 0 0
18 1 6.7910861793030597e-01 8.3645632511767793e+00 1.8441736713947419e+00 0 0 0
4174 2 4.7100271531183535e-01 9.2532144972986501e+00 3.0897768797498721e+00 1 0 0
742 1 1.0792307267891785e+00 8.8263114715339910e+00 2.6107593197492389e+00 0 0 1
2000 1 8.0192533191770146e+00 9.5663557351264643e+00 2.9390765412143920e+00 0 0 0
697 1 2.3871921996334509e+00 9.5138093209992309e+00 1.7200400191861187e+00 0 0 0
136 1 1.9368567082293404e+00 8.4358032450428375e+00 2.1526488513139697e+00 0 0 0
3964 2 1.8246085502642662e+00 9.2965161088987180e+00 2.4587238403713765e+00 0 0 0
4284 2 2.6399536404526933e+00 8.6624202811328814e+00 1.7682243192711489e+00 0 0 2
2635 1 2.6327761843176201e+00 8.8667961343272470e+00 2.6803583418990660e+00 1 0 0
3840 2 9.3630640429442717e+00 5.2977059413124499e+00 2.9014393566971073e+00 0 0 0
3973 2 4.8340832502931042e+00 8.7475470475726453e+00 1.6261904214570930e+00 0 0 -1
144 1 3.5755895903458423e+00 8.6230213302776324e+00 1.9575617836909118e+00 0 0 0
644 1 4.4928716101301447e+00 8.2212148659531170e+00 2.2273053775207483e+00 0 0 1
3269 1 3.7630783855639787e+00 8.7787972425280998e+00 3.0161773256127491e+00 1 0 0
774 1 4.5178739572433191e+00 9.3823401800269721e+00 2.3917294132005513e+00 0 0 0
3815 2 5.0018477044889522e+00 8.0741688062205430e+00 2.9033989918641803e+00 0 1 0
307 1 5.4794085855018384e+00 8.6744974134405215e+00 2.3244910303932329e+00 0 0 0
3583 2 6.3163121353137202e+00 8.0787881620550159e+00 2.5232708424397381e+00 -1 0 1
1016 1 6.3541882486952943e+00 8.9837854053848805e+00 2.8472194606001868e+00 0 0 0
1499 1 3.2088169437337606e+00 2.7629549988069024e-01 6.8556063074739537e+00 0 1 0
4233 2 3.6700398175670852e+00 8.1328761108566738e-02 3.3324693403344865e+00 1 1 1
1752 1 7.7884686848675360e+00 8.4161536001858117e+00 2.8957368248767192e+00 0 0 0
1832 1 7.3666001125195741e+00 8.2093911868087623e+00 1.9852746271498547e+00 0 0 0
1442 1 7.9097232554917341e+00 9.0615487300356801e+00 1.9252999760189793e+00 0 0 0
4279 2 7.2021588348057133e+00 8.9138784374025661e+00 2.4614744807317481e+00 1 0 0
1529 1 6.9104004445910370e+00 8.0962731451820158e+00 3.1324840152516531e+00 0 0 0
1717 1 9.6362456724288190e+00 1.5428355120372477e+00 4.4998785316249981e+00 0 0 1