LAMMPS data file via write_data, version 12 Dec 2018, timestep = 24000000

4320 atoms
2 atom types

0.0000000000000000e+00 1.9309999999999999e+01 xlo xhi
0.0000000000000000e+00 1.9309999999999999e+01 ylo yhi
0.0000000000000000e+00 9.6549999999999994e+00 zlo zhi
9.6549999999999958e+00 0.0000000000000000e+00 0.0000000000000000e+00 xy xz yz

Masses

1 1
2 1

Pair Coeffs # lj/cut

1 1 1
2 0.5 0.88

Atoms # atomic

3143 1 2.4979305732130834e+00 3.1072871799519797e-01 4.4550250135439891e+00 1 0 0
1504 1 6.1779743982308222e-01 1.0333082954412898e+00 4.1025916206026052e+00 0 1 0
1717 1 7.1572970386275783e+00 1.6691297390889097e+00 3.6732935087843934e+00 0 0 1
3632 2 1.0400935969646810e+01 5.7730692365123080e+00 4.7781070434650559e+00 0 0 0
4183 2 1.0472357887724293e+01 8.1570956100551069e+00 2.7899196082509485e+00 0 0 -1
3226 1 5.5431855299331705e+00 7.3898458985478568e+00 4.1445939883143215e+00 1 0 0
2701 1 8.8346644577000486e+00 5.1537177393983873e+00 3.6557783387196392e+00 0 0 0
3206 1 7.7612183940943380e+00 6.2535215010974428e+00 1.3496791278350864e+00 0 0 0
3087 1 1.1302698367953965e+01 9.1668513019607492e+00 3.8165037771394852e+00 0 0 1
2234 1 9.3615661089663806e+00 3.3380420757335614e+00 2.5807341776538570e+00 0 0 1
3553 2 1.0497767608449212e+01 9.4723470128261660e+00 3.9473207826871430e+00 0 0 0
1669 1 6.7141217369573463e+00 5.9977979963736496e+00 9.9597372294937858e-01 0 0 1
1216 1 7.1541935428883203e+00 9.2046383618822247e+00 3.2771249574397205e+00 0 0 0
1905 1 1.1047876219788275e+00 1.0493139463467024e-01 4.4766322240778855e+00 0 1 0
2639 1 1.0230738193134162e+01 3.5423614786241036e+00 8.3643565288539823e-01 0 0 1
184 1 6.9184086273323633e+00 4.4962736092494708e+00 3.5602672198858971e+00 -1 0 0
2120 1 7.9247089914342981e+00 5.0955585412093019e-01 1.9440407768572956e+00 0 0 0
1153 1 8.9631142586153523e+00 4.8365961584017096e+00 2.6444771679725121e+00 0 0 0
3855 2 3.6961367101987612e+00 7.3176036621277722e+00 1.1646723046504179e+00 0 0 -1
3728 2 7.0911010201942268e+00 6.1145549384650320e+00 1.8460685082727541e+00 0 -1 1
4133 2 5.7976184822516190e+00 1.4259079304678410e+00 6.8732708990803115e-01 0 0 1
1603 1 9.3056941971402303e+00 3.8803406026000866e+00 1.2499889131126511e+00 0 0 1
3458 2 5.9603503993618361e+00 9.5468106741665544e+00 1.9719903832593235e+00 0 -1 1
1404 1 1.3863491274719091e+00 2.5509825737432168e+00 4.0263513873782637e+00 0 1 1
1613 1 5.3454766600451675e+00 8.0489350600606073e+00 1.4236830958062774e+00 0 0 1
2009 1 1.1217534789607257e+01 7.1280733525451483e+00 1.6164294578254355e+00 0 0 0
1835 1 8.8608297355938159e+00 1.9425596093963329e-01 6.9728294743520436e-02 0 1 0
1230 1 5.3491019458223130e+00 4.6922340788974948e+00 2.7056993076298128e+00 0 0 1
1142 1 7.9991121651306258e+00 8.3853483067965247e+00 2.9496879329183776e+00 0 0 1
80 1 5.6921831814783523e+00 5.1314114768648791e+00 3.3138984275797123e-01 0 0 -1
1317 1 6.2525749890954962e+00 8.6056985178333392e+00 3.3112826280293759e+00 0 0 0
2608 1 7.8829709318115162e+00 9.5063073016300303e-01 4.3874501625539155e+00 0 0 0
1111 1 3.1023765451215648e+00 2.3032475310456544e+00 3.6367267629396594e+00 0 0 0
77 1 9.9637108281872564e+00 7.9901519930241509e+00 3.5142523651209574e+00 -1 0 -1
1431 1 5.2787657387582723e+00 8.2578224049004190e-01 9.8458294401009827e-01 0 1 0
3984 2 7.2898708633566836e+00 2.1367225664785567e+00 1.1737866092501643e+00 0 -1 -1
3373 1 3.5880903726518838e+00 5.8608960097114364e+00 4.3395858467613824e-01 1 0 1
1171 1 1.0213937716206758e+01 6.2960447135792057e+00 2.2789040908504199e+00 0 0 0
3800 2 1.0332448857760587e+01 5.9361666799276636e+00 3.3026317852659002e+00 0 0 -1
2691 1 1.2765862316883759e+01 8.3709985368745539e+00 9.5753680950688869e-01 0 0 0
1107 1 4.6257587658673298e+00 5.2378734152828681e+00 1.1041388574613942e-01 0 0 0
2989 1 2.1871706837989628e+00 3.6144597102839171e+00 4.4925797515063115e+00 1 0 0
1056 1 2.3806000205133850e+00 2.4327871345419245e+00 1.0386002587860053e+00 0 0 0
2111 1 8.5170031177783869e+00 5.7682518533430871e+00 2.7657884023975643e+00 0 0 0
1031 1 1.4323513851697243e+00 1.8108277031925590e+00 1.5140061743334789e+00 0 0 0
2447 1 6.9853733729747418e+00 8.2788114588856967e+00 2.6169652057639006e+00 0 0 0
3912 2 5.4856908490659944e+00 4.9332773804675982e+00 4.0780290166526560e+00 0 1 0
744 1 7.7899922118397691e-01 1.3014636771245773e+00 7.5718083637093780e-01 0 0 1
3888 2 7.9592822762929432e+00 1.8830639083167386e+00 3.9904624811108187e+00 0 0 0
1462 1 4.7013428855399395e+00 1.6826645857121655e-01 2.5631660236813634e+00 0 1 1
100 1 2.5024195077521272e+00 1.5608919170441977e+00 1.6962546037235455e+00 0 0 0
1663 1 7.0207583188173919e+00 3.0165977114644638e+00 1.0988357941113096e+00 0 0 0
1686 1 4.1108133919995105e+00 6.7077379102401196e+00 4.6563543016022120e+00 0 0 0
2217 1 1.2612457949034068e+01 6.0115451039693051e+00 2.5939751526581545e+00 0 0 0
629 1 3.2059118624480458e+00 1.7300200655397591e+00 9.8151144950126079e-01 0 0 0
1362 1 6.9130617548512756e+00 9.0307951631833152e+00 5.5551331068124421e-01 0 0 0
576 1 5.4160003725862271e+00 3.5314087195373434e+00 8.5268356474316354e-01 0 0 0
715 1 3.9418167755142219e+00 3.8277909743730341e+00 2.1610802428928757e+00 0 0 1
1838 1 7.1452307955810177e+00 4.1044541725176682e+00 4.7447736939454996e+00 0 0 -1
1737 1 7.5498436161522369e+00 5.3925252578707159e+00 3.1665345209140647e+00 0 0 0
1395 1 5.0166499094403791e+00 2.4939685805281360e+00 1.5959891187088433e+00 0 1 1
1221 1 9.2411552749093815e+00 5.7883479549726689e+00 2.0425203154304827e+00 0 0 1
3530 2 1.1436037357748004e+01 6.6936349954427463e+00 7.5005536656531702e-01 0 0 0
1485 1 1.8511473455003886e+00 3.2127188426157325e+00 4.2147358965353465e-01 0 1 1
2196 1 8.3258409151725257e+00 3.4641840272891558e+00 3.4838355707429240e+00 0 0 1
2414 1 7.9707487369611041e+00 2.5778673814639093e+00 8.0122327722798825e-01 0 1 1
2979 1 8.2277875088991994e+00 6.9696371615870376e+00 2.0702173892312166e+00 0 0 0
1652 1 6.7253296983904640e+00 9.4921350805664098e+00 2.3521876697888251e+00 0 0 1
2149 1 6.3516988732270008e+00 4.9033916424331805e+00 4.3624028491820726e+00 0 0 0
981 1 2.7609199170608454e+00 3.6693634139114564e+00 9.5722653429079185e-01 0 1 0
3475 2 5.1128229730132118e+00 7.5214061294619405e+00 2.1019510175386684e+00 0 0 -1
3493 2 2.9245104628975631e+00 2.2615003375631626e+00 1.6538852776122097e+00 0 0 -1
610 1 1.2321154202281073e+00 1.6310791695832361e+00 3.4735606867156927e+00 0 0 0
3422 1 2.8374726100785835e-01 5.4756559374241087e-01 1.2559493951721905e+00 1 1 0
1816 1 8.2770984644456274e+00 8.8969346098275315e-01 3.4049701378666524e+00 0 1 0
534 1 3.8915075267418198e+00 6.0050475262075205e+00 3.7584283279463575e+00 0 0 0
2173 1 1.2135417311824817e+01 5.5081734872597679e+00 1.6746142377000495e+00 0 0 0
191 1 1.0325515016277397e+01 4.2598544967097078e+00 4.0483287874512698e-02 -1 0 1
2320 1 9.8815005356820613e+00 1.8916779388460185e+00 3.5064809770134899e+00 0 0 0
2185 1 1.0746251616870941e+01 4.1903370763582188e+00 2.8579326927906781e+00 0 0 1
640 1 1.4550200445746300e+00 2.2421180295198622e+00 5.3911105647402890e-01 0 0 1
1930 1 6.2788477860907950e+00 6.7789136386531090e-01 5.2362746612503985e-01 0 1 1
238 1 8.1830696719046685e+00 2.8316384824269769e+00 2.6798375391605882e+00 -1 0 1
1813 1 6.2664741736722576e+00 5.9345476911042576e+00 3.8990065321672575e-02 0 0 1
1604 1 9.3913843518848683e+00 9.2576334867736920e-01 3.3168620685629864e+00 0 0 0
2081 1 2.9027028032786415e+00 2.2589141013832403e+00 2.5913102693888086e+00 0 0 0
2050 1 3.4820489499949856e+00 3.1719919669424010e+00 2.8510684033273588e+00 0 0 0
899 1 1.0384577279771259e+01 8.6662963596667417e+00 4.1963305778983857e+00 0 0 0
639 1 5.5206527169909743e+00 2.2549742199281164e+00 2.4774191752825101e+00 0 0 0
41 1 3.6390959343918441e+00 4.8267617685023669e+00 2.0726311068858658e+00 0 0 1
1946 1 6.6490265991382618e+00 3.6909034967385232e+00 1.8452274466393221e+00 0 1 0
3004 1 1.1860079396654704e+01 6.4898154522787248e+00 3.7490091638878318e+00 0 0 0
3878 2 2.1194056346573822e+00 3.2114645785364373e+00 1.4735330096320225e+00 0 0 2
2461 1 8.3261573526597541e+00 3.5712314725694991e+00 9.2322564024101661e-01 0 1 1
708 1 7.3627701197535904e+00 6.9581547837918345e+00 5.6954712885356162e-01 0 0 1
2179 1 1.3402905648692819e+01 7.5987118920929335e+00 3.5934555853237193e+00 0 0 0
1579 1 9.9218764257714849e+00 4.3088879787681345e+00 2.2131960546899228e+00 0 0 0
1229 1 9.7918377135223746e+00 5.4761489860969617e+00 3.9731467496131203e+00 0 0 1
2154 1 2.8031809462603521e+00 9.2430873262292446e-01 2.4246021116801915e+00 0 0 1
91 1 4.5364406802080293e+00 5.3582444610586490e+00 2.3835811312506801e+00 0 0 0
2721 1 1.0007684354280903e+01 6.7412712333811777e+00 3.2173269987065307e+00 0 0 0
2513 1 8.3522497344773665e+00 4.4101352291044673e+00 1.5837546292704783e+00 0 0 0
1705 1 6.4127876904344419e+00 6.7465447768019349e+00 4.3058218068010756e+00 0 0 1
1226 1 1.0158706847087689e+01 7.1417325497173847e+00 1.6515177883863281e+00 0 0 1
3734 2 1.0615913946111107e+01 9.4326046052554933e+00 2.2803915201087865e+00 -1 -1 1
403 1 1.0219279575807171e+01 1.3406733630380590e+00 2.7468510754581064e+00 -1 0 1
3996 2 9.4468409337710231e+00 1.1671410676191986e-01 3.2889316175777079e+00 0 0 0
2165 1 9.3563752621220324e+00 9.3629191824580911e+00 2.8579016405067503e+00 0 0 1
317 1 1.0603783875741286e+01 4.7277038272793224e+00 4.2460812703371280e+00 -1 1 0
655 1 4.9649935900906250e+00 5.9605638902777702e+00 1.7357754134973302e+00 0 0 0
3924 2 1.2046183316445246e+01 8.3965105986641309e+00 5.7521409995963291e-01 0 0 0
1136 1 2.7209479617222998e+00 4.4410078492309761e+00 3.7558657413572742e+00 0 0 0
537 1 3.0047138259455952e+00 3.1287168279177400e+00 1.8438544239150745e+00 0 0 0
3019 1 2.4986728720981701e+00 1.8780223208530578e+00 8.9915851218642776e-02 1 0 0
3025 1 1.2678868961521269e+01 7.3388638671065731e+00 1.0459281912199248e+00 0 0 0
3724 2 7.5451592989621670e+00 8.8955424392721483e+00 2.4810175928614906e+00 0 0 0
3753 2 9.3566740465487737e+00 1.5267073776871465e+00 6.7616277235917388e-01 0 0 0
2666 1 1.1086049447260677e+01 2.9647115705373066e+00 6.3394183004755733e-01 0 0 0
1428 1 8.3514390668188216e+00 6.5010844824610885e+00 4.9104697938169001e-01 0 0 1
1134 1 8.1372473398460645e+00 9.2586057291624329e+00 1.8336032865267597e+00 0 0 1
1937 1 5.6423192187371027e+00 2.2445505943326943e-01 3.0033361478318206e+00 0 0 0
2769 1 6.6449128270896693e+00 1.6691506054834127e+00 9.4410793287043315e-01 0 1 0
140 1 7.7298736146676905e+00 4.9939193844664693e+00 4.1126748834185172e+00 0 0 1
1503 1 6.2062525371957786e+00 8.1417000456939821e+00 6.3965006971354699e-01 0 0 0
3600 2 7.7308949230389725e+00 4.0684777232008358e+00 3.9063818390430387e+00 0 0 0
177 1 7.5583190153357265e+00 7.4124434456873995e+00 2.8632618278033166e+00 0 0 0
4141 2 4.9619087024923871e+00 1.5914994699662792e+00 1.3766248959688181e+00 0 2 0
1137 1 7.5861361492335604e+00 8.3166924251853072e+00 4.8123716996918882e+00 0 0 1
1923 1 6.2151908261937434e+00 1.0074709045319441e+00 3.6613579835195096e+00 0 1 1
850 1 9.8622260254646168e+00 1.8972461013443409e+00 2.2412153483917837e-02 -1 1 0
3816 2 2.0204809534083061e+00 1.6057436851226810e+00 9.4143285936945720e-01 0 1 1
1886 1 8.1919857627936530e+00 1.8688432184072572e+00 3.0700725669876041e+00 0 1 0
1095 1 7.5483362859051812e+00 6.3100651158007066e+00 2.5708578269911651e+00 0 0 0
1259 1 1.1159676134379836e+01 8.7705574228673076e+00 2.5432021749591440e+00 0 0 0
1232 1 1.6805112174697696e+00 1.2353464814538735e+00 2.5487240415332052e-01 0 0 1
1667 1 5.1973276409291538e+00 1.4504839384049832e+00 4.0298909134639747e+00 0 0 0
4024 2 8.8690974969637555e+00 5.2924591303335455e-01 1.8023501030590505e+00 0 1 1
3055 1 1.1208565720717370e+01 5.9846370572406373e+00 1.9778325321514620e+00 0 0 0
3064 1 5.0002615625869558e+00 8.5993017282271236e+00 5.3516596918991732e-01 1 0 0
1661 1 1.0964949218167495e+01 5.6967819388435768e+00 3.9193812405840478e+00 0 0 0
3513 2 7.5086500343977942e+00 2.8063281361046224e+00 4.4855701985839955e+00 -1 0 0
2564 1 1.1329089704880680e+01 4.7629416970281904e+00 3.4921474362709573e+00 0 0 0
1902 1 1.0344686710727562e+01 8.9921310856334014e+00 3.1663628857849559e+00 0 0 0
386 1 1.3073167692358911e+01 6.8404387568679761e+00 5.9476374660198547e-02 -1 0 1
3606 2 3.1990671492503435e+00 3.7810724716924948e-01 3.0660112664967865e+00 0 0 0
2036 1 8.8242108634223868e+00 4.6289931960879294e+00 7.1669466889451727e-01 0 0 0
1980 1 6.6420531363762922e+00 7.9122429084510433e+00 1.5773681932908905e+00 0 0 0
1729 1 9.3016033200694430e+00 6.8414921496691872e-01 9.4973526251434570e-01 0 0 1
4185 2 5.8266741920920344e+00 2.2306386129878361e-01 1.2030872328672977e+00 0 1 1
551 1 5.5889981816891794e+00 5.1245084804573633e+00 1.6495004662008854e+00 0 0 0
1231 1 3.3555828029971178e+00 7.6012521182604664e-01 1.5250964453309059e+00 0 0 1
2176 1 1.3574422135244488e+01 8.3324401992764070e+00 1.6232502132574598e+00 0 0 2
2734 1 9.6271965357189053e+00 9.6355323755336180e+00 6.2507511477831879e-01 0 0 1
669 1 1.0041488763011525e+01 8.7904650406848557e+00 2.1452095702851626e+00 0 0 1
1104 1 4.3201852537406689e+00 1.0529650250511444e+00 6.6501130845334033e-01 0 0 0
2831 1 9.0072535111958718e+00 8.4315925008931103e+00 3.3539066981955288e+00 0 0 -1
127 1 4.3839650763860405e+00 3.8534954782575137e+00 4.5269939415894163e+00 0 0 0
1016 1 5.7269454839653839e+00 9.3488921675079588e+00 2.7960509202510497e+00 0 0 0
642 1 7.5333820675125525e+00 2.0006561640017884e+00 4.7727147520061877e+00 0 0 0
2038 1 1.0147497853035400e+01 1.3631042532294324e+00 9.9509053273560832e-01 0 0 1
2820 1 1.1645927611018054e+01 9.2497704977522002e+00 3.9066310798334986e-01 0 0 0
1345 1 1.0178327802025359e+01 6.4134839090356639e+00 4.1497292500636425e+00 0 0 0
1819 1 4.6233837801390729e+00 2.3898748993460766e+00 4.5238810460845320e+00 0 0 0
757 1 2.8819136627428463e+00 3.0897898193228128e+00 6.9851173390741747e-02 0 0 1
1695 1 1.0630030291290884e+01 8.0224017719255141e+00 1.8559095287913967e+00 0 0 1
695 1 7.6997497917756998e+00 4.4653433506054450e+00 1.0682212573647534e-01 0 0 1
709 1 5.0174859804645111e+00 2.2654587726715101e+00 3.3526758734506386e+00 0 0 0
3873 2 1.2017597559337819e+01 5.7019928771479194e+00 1.3110461371651630e-01 0 0 2
2072 1 9.2477281444094501e+00 6.7732212666026124e+00 2.4128586905239162e+00 0 0 0
3629 2 8.9329914479400365e+00 8.7909139975731154e+00 5.1037449225414888e-01 0 0 0
4026 2 7.8896224192769338e-01 1.2257249914171209e+00 1.5776731238616304e+00 0 1 0
787 1 4.8429734781181999e+00 4.3392568837736425e+00 3.6060312043167184e+00 0 0 0
2563 1 7.3825574120609279e+00 8.0921076984023994e+00 9.3423292994594553e-01 0 0 0
2188 1 7.0833791941477333e+00 3.4857177991006201e+00 3.8945374608569048e+00 0 0 0
1908 1 7.6809320294747643e+00 7.9498935013911165e+00 1.9510875376186807e+00 0 0 0
606 1 5.6408630850073260e+00 8.4968600978662590e+00 4.1242199713825167e+00 0 0 0
2181 1 7.4268778866072331e+00 4.4885311432437440e+00 2.2041211644264118e+00 0 0 1
1577 1 7.6316373202928824e+00 2.6442101668585072e+00 3.6475507707550774e+00 0 1 0
1446 1 5.6445581959964350e+00 2.4451442385887376e+00 4.2825222387902242e+00 0 1 0
553 1 9.3516261482363401e+00 2.1246770605626581e+00 1.3399629053779005e+00 -1 0 1
3783 2 7.0131771556490783e+00 1.8119473137301548e-01 1.7484853255694053e+00 0 0 1
2051 1 1.1241770636792699e+01 3.9424707885491359e+00 9.2234558835579050e-01 0 0 1
2584 1 9.5769638381121887e+00 1.3077479781671095e+00 1.8431863515039677e+00 0 0 0
584 1 5.4764038943816429e+00 1.3732663609686984e+00 2.9985160188615914e+00 0 0 0
895 1 3.4109910349724459e+00 6.7222173041257793e+00 2.8180980979146706e+00 0 0 1
721 1 4.6374088302715579e+00 1.7085731057405302e+00 2.2193422350966667e+00 0 0 1
2665 1 9.6119303358642849e+00 5.6829657208047895e+00 1.0610540439090312e+00 0 0 1
3595 2 9.3424907207406118e+00 1.5979411964471257e+00 2.7144711530613295e+00 -1 1 1
3661 2 1.1418266090942735e+01 4.8273650907574721e+00 4.3913586780647123e+00 -1 0 0
2895 1 9.8240433266867058e+00 2.9932035365247529e+00 1.6588287185419415e+00 0 0 1
1809 1 8.6680591339400994e+00 7.7079898184715029e-02 2.8032629668439761e+00 0 1 0
540 1 3.2282679715933318e+00 3.4169987306653762e+00 4.7072576359899703e+00 0 0 0
3956 2 8.4356802570279825e+00 9.2307867856004506e+00 2.6396009310956883e+00 0 -1 0
2148 1 6.8421507099151464e+00 1.1585179345469647e+00 4.4758442757482371e+00 0 0 1
1704 1 3.4136967226063177e+00 2.7855974865509192e+00 9.7477967229655615e-01 0 0 1
1381 1 5.0309349071682767e+00 9.5756329200797659e+00 8.7313554134343307e-01 0 0 0
3905 2 1.7464178605022596e+00 1.0018766595347619e+00 2.1642889414854327e+00 1 1 0
4279 2 4.6765200683346109e+00 7.3486606772684224e+00 4.3328551316925363e+00 1 0 0
3970 2 1.5912725957735283e+00 2.9467557199401999e+00 4.7897068610305418e+00 0 1 -1
2689 1 2.6185597461561914e+00 8.4106056740894553e-01 3.5018323345899880e+00 1 0 0
3256 1 4.9105710468570800e+00 6.9487301571938405e+00 1.2608891780865050e+00 1 0 0
3375 1 1.0915634025894656e+01 8.5610465865682581e+00 6.2075249518860154e-01 0 0 1
820 1 3.8023668612950856e+00 6.2402483743567017e-01 2.5865477345606811e+00 0 1 0
1201 1 9.6002949852291373e+00 6.9512318229435728e+00 7.6023548528050511e-01 0 0 1
4119 2 8.5159072331145840e+00 2.2660360932167016e+00 1.4351988439993553e+00 0 0 1
3995 2 9.9250952088050735e+00 7.2698175771715494e+00 4.0130245128921738e+00 -1 0 2
2653 1 6.0926066869793063e+00 4.4046123373657426e+00 9.5407100546326906e-01 0 0 1
648 1 6.1160200895892993e+00 3.3101414529226907e+00 3.7620647534488612e+00 0 0 0
442 1 1.3185077313872348e+01 8.6595023865152196e+00 3.2047424645022025e+00 -1 0 0
259 1 1.5554687451579807e+00 7.8161571684612052e-01 1.2477793179549090e+00 0 0 1
172 1 1.7555978521205255e+00 3.3805321131603860e+00 3.4950711862981438e+00 0 0 0
2256 1 8.0471493052024545e+00 5.7795848788645934e+00 4.8222503824959295e+00 0 0 0
4265 2 1.1959450915909089e+01 8.7795600473400537e+00 2.1360866011702702e+00 0 0 2
1304 1 4.6241187591036406e+00 6.1621088067116980e-01 3.4475423274231325e+00 0 1 0
527 1 1.1115478108391377e+00 1.5868138523967867e+00 2.4262889761371129e+00 0 0 0
3744 2 1.0077600472040155e+01 1.1019185385003556e+00 3.7463918437798891e+00 0 0 1
3191 1 9.5372716860090527e+00 5.7647950434382595e+00 3.0368744203689650e+00 0 0 0
4108 2 7.8600081366826879e+00 4.2639539194878506e-01 2.7761254566241385e+00 0 0 0
1526 1 1.0721602507386503e+01 7.1271552536105327e+00 6.1070849546503503e-01 0 0 1
808 1 1.1113061812672925e+01 9.1335062992659299e+00 1.5551454156952977e+00 0 0 1
3952 2 2.2109354437444990e+00 2.6317054285836985e+00 3.4729086841476415e+00 1 1 0
522 1 4.1930147585517448e+00 2.0786500522185269e+00 5.1055631681432713e-02 0 0 1
781 1 3.9464920414217834e+00 4.9333519855099892e+00 3.7897794765682575e+00 0 0 0
704 1 5.8470006593008179e+00 1.1164395670813685e+00 4.7896283666916313e+00 0 0 0
3523 2 4.6782011250129214e+00 2.6372588067783562e+00 2.4522010565513606e+00 0 0 1
3547 2 8.8448789410114070e+00 7.6895420485166381e+00 4.3088885939151167e+00 -1 1 0
427 1 4.3325091681652452e+00 8.1076409581606568e-01 1.6861095205734653e+00 0 1 0
149 1 1.0541735894793414e+01 1.9375514286437423e+00 1.8186009791142885e+00 -1 0 0
1026 1 3.3944532195285495e+00 1.4340836487002866e+00 3.1233929395046687e+00 0 0 0
354 1 3.6102494909872185e+00 5.8450005426715734e-01 3.8608228565287797e+00 0 1 0
3745 2 1.0307263531467610e+01 8.8095604587868763e+00 1.3371579268515905e+00 0 0 0
2060 1 2.1328835558451025e+00 1.5652991902040969e+00 2.6685755965746010e+00 0 0 0
753 1 4.0419781828452654e+00 2.1755061147810406e+00 2.9567865169882674e+00 0 0 1
2422 1 3.9133627765322512e+00 2.5885050428141620e+00 2.0065963289789241e+00 0 1 1
1250 1 5.8136934319891154e+00 1.7115305789056556e+00 1.5443346125817752e+00 0 1 0
4032 2 9.7178493445133309e+00 6.3474370939233431e+00 1.4733416478692534e+00 1 0 0
2571 1 8.9287674092913676e+00 8.5969434929425894e+00 2.2378820316268806e+00 0 0 0
1087 1 8.3608506200592476e+00 3.7852195524007390e+00 2.4889942893369934e+00 0 0 0
1277 1 3.4914066391584750e+00 4.5011535320061817e+00 9.6505578452814067e-01 0 0 -1
701 1 7.7917697778574846e+00 2.3688246472129717e+00 1.8338078921266621e+00 0 0 0
243 1 7.3252872796620174e+00 4.1673486352710141e+00 1.0917161557183106e+00 0 0 1
1632 1 6.3783951264633281e+00 8.1406263592783301e-01 1.5707006674391943e+00 0 0 0
1102 1 7.4468694197530070e+00 1.2275363453103902e+00 2.7464875341467159e+00 0 0 1
2718 1 1.1824586723948906e+01 6.7083576781353811e+00 2.3959321477119091e+00 0 0 0
204 1 4.3574420248519878e+00 7.6950707759552976e+00 7.2678137211356708e-01 0 0 0
967 1 9.1015732420819369e+00 7.9173133578810857e+00 5.4584047797169377e-01 0 0 1
53 1 8.7363466160320584e+00 3.0944350432688865e+00 1.7015465138402868e+00 -1 0 0
1875 1 2.3882443779699623e+00 3.4789789979415797e-01 1.7111622907160580e+00 0 1 1
1954 1 6.5481479623914156e+00 1.2929747967092142e-01 4.6832534603925842e+00 0 0 0
2630 1 1.2562663841849638e+01 7.1438945747033324e+00 3.0935172656178120e+00 0 0 0
3153 1 2.3399968553526191e+00 3.8840053869470665e+00 1.9784915237943181e+00 1 0 1
2427 1 3.4478049986604802e+00 2.4295187701187437e+00 4.7592903863871374e+00 0 1 0
2405 1 1.6125961473446764e+00 7.4981655797652413e-01 2.9400286008903587e+00 0 1 0
3295 1 1.5102719835279186e+00 2.4923675677144463e+00 3.0000999832221056e+00 1 1 0
2213 1 2.4493673964973928e+00 3.1754497765343048e+00 2.7695930278353353e+00 0 0 1
2849 1 8.2399058326395149e+00 3.9267976354506001e-01 9.3777400791576737e-01 0 1 1
4261 2 1.2624654356862582e+01 7.9821101689096361e+00 2.8748312507785316e+00 -1 0 1
649 1 2.9826863355395004e+00 4.1064677338184010e+00 2.7413743105044523e+00 0 0 1
3508 2 3.5601146444225726e+00 3.5753090972878891e+00 5.8158063978068342e-01 0 1 1
1639 1 6.4123454323291504e+00 2.8890315788039049e+00 2.6234096918367307e+00 0 0 0
4228 2 9.1048206892545203e+00 4.1402999514160879e+00 2.0867249288883123e+00 0 0 1
1536 1 5.0694756760333002e+00 3.2243123452357629e+00 3.8157728807669788e+00 0 0 0
2034 1 1.3472750095163729e+01 9.1113563999546621e+00 4.2577973930325363e+00 0 0 0
533 1 6.4350999647514495e+00 4.4517480853526710e+00 2.6163784572869151e+00 0 0 0
1158 1 6.4162246393303439e+00 1.4784458566615357e+00 2.4869822099367065e+00 0 0 0
1035 1 5.6858306842246602e+00 4.0713953433610230e+00 1.9192103707741754e+00 0 0 1
2112 1 7.3410512592507331e+00 1.3878192249946539e+00 1.7189794377840895e+00 0 0 0
2494 1 7.5916620798984038e+00 5.2457493576703813e+00 8.5842569506707089e-01 0 0 0
4118 2 6.8585953265690112e+00 7.4913244644138350e+00 2.3051435143716978e+00 1 1 1
1422 1 6.6264172020588061e+00 8.9033718567440037e+00 4.3650672506144499e+00 0 0 1
588 1 9.2006590951720764e+00 4.0821572638200072e+00 3.3504279082750661e+00 0 0 0
1292 1 5.5590243109000177e+00 4.0398359526771257e+00 4.4305266450481753e+00 0 0 0
872 1 1.2165174628885289e+01 9.0638133658331217e+00 1.3453928009869809e+00 0 0 0
2201 1 3.0655069489144791e+00 1.4154302071390039e+00 4.3405614443731784e+00 0 0 0
2624 1 1.2104233854904781e+01 8.8425607308481826e+00 3.0033789820475558e+00 0 0 0
1252 1 3.3957277185077470e+00 3.7290500121904674e-01 2.7343918259095185e-01 0 1 1
1559 1 9.5693818728951552e+00 4.5365476753443007e-01 2.4277224194249523e+00 0 0 0
705 1 6.4902476960052926e+00 3.3057160076327672e+00 2.1049357795104320e-01 0 0 0
2881 1 1.2095256006303394e+01 6.6610385096784563e+00 1.7653886400625299e-01 0 0 1
3936 2 8.0297518813169688e+00 8.6297003019445455e+00 3.7374654269597585e+00 0 0 1
1538 1 9.5740286820081053e+00 1.2074582694727163e+00 4.4059588853613878e+00 0 1 0
157 1 4.5699683020702047e+00 6.2789619193992472e+00 2.9460425886709971e+00 0 0 1
644 1 4.3137269867065706e+00 8.1963620290372656e+00 1.9920137279334191e+00 0 0 1
397 1 1.2040938981440615e+01 5.4807180379752340e+00 4.0804181213277371e+00 -1 1 1
3111 1 1.3586577651827508e-01 1.3695876527517925e-01 3.6179607450983231e+00 1 0 -1
525 1 4.5979079894358064e+00 2.7821303828346533e+00 7.1451394265986401e-01 0 0 0
4053 2 4.5886127507718575e+00 1.4784855148762148e+00 3.1708140972172174e+00 0 0 -1
827 1 4.6863766756069598e+00 4.5799119337287513e+00 1.8015202736381575e+00 0 0 0
909 1 2.4190563595284011e+00 2.6158195432668188e+00 4.5735704267546167e+00 0 1 0
1083 1 3.7037635980957537e+00 3.8890963581750033e+00 3.6474284027981003e+00 0 0 0
662 1 5.5173642058013410e+00 5.7978600357825805e+00 2.6790564923213491e+00 0 0 1
3035 1 1.0395333768694284e+01 1.7926079240975461e+00 4.3707140027974658e+00 0 0 0
579 1 5.7856338015502953e+00 6.4381313370135000e+00 3.4663469204550887e+00 0 0 0
1628 1 5.6441182895539592e+00 3.6044058005263500e+00 2.8481228158798824e+00 0 0 0
2316 1 8.6643880756816181e+00 1.1945587594515754e+00 2.5397671574549807e-01 0 1 1
2212 1 9.9112078027839061e+00 4.8286148125530959e+00 3.1906545541530962e+00 0 0 1
1040 1 6.2658578456875862e+00 5.3774006894794395e+00 3.3955145273895404e+00 0 0 1
3320 1 5.8679918739432813e+00 9.5182517208515929e+00 3.9239288342079490e+00 1 0 0
1156 1 5.7863537841348771e+00 5.8075435839927110e+00 4.2476311472956318e+00 0 0 0
1644 1 5.0668514048731623e+00 1.8821175589353913e+00 6.1572551563213496e-01 0 0 1
1587 1 1.0740967088428459e+01 7.3310234157120018e+00 2.6423126110353468e+00 0 0 1
169 1 3.1561287682067234e+00 5.4714200148550205e+00 1.3533814392957972e+00 0 0 0
2237 1 9.7050882718990774e+00 7.7983611378259203e+00 2.5236288368755653e+00 0 -1 0
1192 1 4.9174450166077630e+00 3.4295661900876757e+00 2.0033943961730807e+00 0 0 1
1548 1 8.8662468104970067e+00 6.5250418918029824e+00 1.4000707190736177e+00 0 0 0
1829 1 1.1340769086563547e+01 8.6028046374012010e+00 4.7690240201130516e+00 0 0 0
1863 1 5.4179723086011107e+00 8.4494566754068989e-01 2.0691863152497381e+00 0 1 0
3972 2 9.9820106633521686e+00 3.8233048625966810e+00 3.0230111834325553e+00 0 0 -2
1837 1 1.2799970415462045e+01 8.9346066725723681e+00 2.1501281861798853e+00 0 0 0
963 1 1.7296262954386745e+00 1.1470839468948046e-01 2.8288037424957907e-01 0 1 1
1079 1 1.2710730840418517e+01 9.5423375803271000e+00 5.9150466687819603e-01 0 -1 0
4213 2 1.0954643045717585e+01 7.7977921383214914e+00 1.0582663217163726e+00 0 0 0
4073 2 9.7503059728435417e+00 8.1190557349069508e+00 1.7272772818652611e+00 0 0 0
1295 1 5.8771917438761179e+00 9.0288913084379594e+00 1.1926174878117235e+00 0 0 -1
2377 1 1.3658327623164478e+01 8.8229565887920760e+00 5.7691616734891082e-01 0 0 0
2560 1 9.5618247667247331e+00 4.3233724489302210e+00 4.3742413742951971e+00 0 0 1
2302 1 8.5189770852354734e+00 4.3379170033788474e+00 4.2800631211029057e+00 0 0 0
3665 2 1.3028000636027699e+01 8.2770767907167713e+00 4.0973766593920438e+00 0 -1 0
126 1 4.3464445758104420e+00 7.2122959732809626e+00 2.2827907046081264e+00 0 0 0
4098 2 9.7462670630553627e-01 3.5466562791693712e-01 7.1164021108451503e-01 1 0 0
556 1 4.1884638258803939e+00 4.5302164489842331e+00 2.8730814859838438e+00 0 0 0
224 1 5.4564971653638530e+00 6.7385542327032475e+00 2.2225392923838521e+00 0 0 0
1602 1 6.0501021292784944e+00 7.0531126657270988e+00 1.5037809151620130e+00 0 0 0
1410 1 4.7388746706430753e+00 7.9913771465126180e+00 3.7533584857219626e+00 0 0 0
1068 1 6.7941093428727051e+00 5.5530334644880019e+00 2.4793625540162543e+00 0 0 0
1160 1 5.2158280998783599e+00 7.2499861614867456e+00 3.1020339031543274e+00 0 0 1
1094 1 9.3222215468869134e+00 2.9669160692871306e+00 7.2502006698559207e-01 0 0 0
1438 1 6.5247837783169018e+00 6.7493692046372704e+00 2.5288285521840219e+00 0 0 0
2822 1 9.6081383711774357e+00 8.0514037694258516e+00 4.4976495992578256e+00 0 0 0
1539 1 6.1200465032076545e+00 5.9832306833889932e+00 1.8499667662576220e+00 0 0 0
3894 2 1.0568288419458600e+00 3.5749099603461276e-01 3.6049373696473843e+00 0 -1 2
1388 1 8.1757532386168883e+00 7.3643836643771179e+00 1.0960139470627539e+00 0 0 1
1828 1 1.3423905406392528e+01 9.3912751496249118e+00 1.4334402714827581e+00 0 0 0
1064 1 3.2576754374500290e+00 5.1475735973624026e+00 3.0505720752599155e+00 0 0 -1
2554 1 5.0140783059314415e+00 4.5329698057032202e+00 8.4565513171838591e-01 0 0 0
3116 1 1.2456159496835948e+01 7.7237790287360593e+00 1.6084878072382069e-02 0 0 0
1338 1 3.3749700173682458e+00 1.4399004193446356e+00 1.4087441794215564e-03 0 1 1
1844 1 1.0234871837989505e+01 5.3907397800924999e+00 1.7892745928825682e+00 0 0 1
832 1 5.0377895624112323e+00 7.0094751035761034e+00 1.7368285386312332e-01 0 0 0
2512 1 7.8324757054641285e+00 6.1256559278385581e+00 3.8306361099353334e+00 0 0 0
3135 1 9.1436775762214761e+00 3.8388251076501270e+00 1.0841733866696809e-01 0 0 1
1172 1 9.0650360547427251e+00 6.3551812758459363e+00 3.8827966675374248e+00 0 0 0
3991 2 7.5541825182033620e+00 6.5387282149194057e+00 4.5563795183195506e+00 0 1 1
3546 2 6.2949537153047119e+00 3.4924528353697197e+00 1.0186905201001977e+00 0 0 1
1378 1 8.5414828622671539e+00 9.5009835911126359e+00 8.9035346133938320e-01 0 0 0
197 1 8.5793554786871535e+00 1.3449165861832055e+00 1.4484541039585701e+00 -1 0 1
1726 1 9.2696209165481029e+00 4.8447242946140028e+00 1.6113905762185523e+00 0 0 1
4165 2 9.7522961842409490e+00 7.5866827030222046e+00 6.3714480338668791e-02 0 0 1
3397 1 6.7861091588456830e+00 3.4718970993198262e-01 2.5521458351474751e+00 1 1 1
3518 2 1.0553972077737750e+01 2.3766005481611749e+00 3.5253703464987192e+00 -1 0 0
3815 2 4.5889522704808758e+00 7.9018587789447148e+00 2.8087507690727009e+00 0 1 0
307 1 5.2670637628742032e+00 8.4209484405512320e+00 2.5844303706287857e+00 0 0 0
3583 2 5.6060943623507278e+00 7.4434352129061141e+00 7.9499942334463580e-01 -1 0 1
699 1 1.7208089863426856e+00 8.9126444309078945e-01 4.1441553192962637e+00 0 0 1
109 1 1.0057917673832446e+01 8.0140326053688238e+00 9.4836998243595927e-01 -1 0 1
4187 2 1.1500280978927597e+01 7.1701969821454483e+00 3.1901014491187087e+00 0 0 1
1752 1 7.0782293668439937e+00 6.9136270572066527e+00 1.6447247541520640e+00 0 0 0
4168 2 4.8397642329907811e+00 9.1398645555368514e+00 2.6146708927067444e+00 0 0 0
1442 1 6.1314046080801559e+00 8.6406042729093322e+00 2.0837582135259627e+00 0 0 0
2920 1 9.5529934047572134e+00 9.2163506592587758e+00 3.8380015319964160e+00 0 0 -1
1529 1 5.9844648375923040e+00 7.6804968219892409e+00 2.3778056881846519e+00 0 0 0