LAMMPS data file via write_data, version 12 Dec 2018, timestep = 240000

4320 atoms
2 atom types

0.0000000000000000e+00 1.9309999999999999e+01 xlo xhi
0.0000000000000000e+00 1.9309999999999999e+01 ylo yhi
0.0000000000000000e+00 9.6549999999999994e+00 zlo zhi
9.6549999999999958e+00 0.0000000000000000e+00 0.0000000000000000e+00 xy xz yz

Masses

1 1
2 1

Pair Coeffs # lj/cut

1 1 1
2 0.5 0.88

Atoms # atomic

3870 2 9.9111088788440096e+00 4.7671758916433378e+00 7.8333771259750384e-01 0 -1 0
701 1 7.2190359456282502e+00 1.5428786893384157e+00 2.8729007047278046e+00 0 0 0
2399 1 4.7507140288021432e+00 8.4325169413116825e+00 1.3880376072709149e+00 0 0 0
3119 1 7.3340697341210008e+00 2.7271771078943590e+00 7.8523767902076305e+00 0 0 0
1 1 8.3902702868653538e+00 4.7278943979086403e+00 1.0575650349239847e+00 0 0 0
1737 1 7.2947996932851247e+00 7.1817653337944209e+00 4.8138231413580286e+00 0 0 0
3767 2 1.0915445043312886e+01 7.2784056444435352e+00 8.1265624925736735e-01 0 0 2
2991 1 1.0853379096920543e+01 7.6158506165929456e+00 7.2074132705732605e+00 0 0 -1
2092 1 1.2760181872580439e+01 6.2358292481113375e+00 3.0200537049893463e+00 0 0 0
3379 1 1.1745342536346776e+01 6.2614764059128536e+00 1.7931679211463363e+00 0 0 0
1585 1 1.0271344451611792e+01 5.2826392431473019e+00 5.1834768047056476e+00 0 0 0
3529 2 1.1049421362270468e+01 3.4589247999955819e+00 5.0801485889140201e+00 -1 1 -1
664 1 1.5764031459146761e+00 1.1432418834348788e-01 8.4027801610960999e+00 0 0 0
529 1 1.0374972915743575e+01 2.2158311336341896e+00 2.8175153691845045e+00 -1 0 1
1944 1 4.6485442839884232e+00 9.1612415092315196e+00 2.0400536494304990e+00 0 0 0
3203 1 9.2637669326955674e-01 1.3941343489400311e+00 3.9158838899165743e-01 1 0 0
1264 1 1.6650926979073888e+00 1.5269417729902592e+00 1.2369073944161828e+00 0 1 0
756 1 7.6947678522154188e+00 7.7054667284640743e+00 5.6670918484670025e+00 0 0 1
3758 2 1.7906703805628807e+00 7.5723237432482049e-01 1.7390357964979513e+00 0 0 1
663 1 2.4186924603032178e+00 8.0267322964002441e-01 1.1535141896818817e+00 0 0 0
963 1 2.0768107467923627e+00 1.3777021318887666e+00 2.7832993470549483e-01 0 1 1
4222 2 2.0782473296574864e+00 5.0349679416871218e-01 4.5702436790605960e-01 1 0 -1
899 1 8.3007729367718746e+00 7.9607048649499816e+00 3.4101189392197537e+00 0 0 0
1252 1 2.8960463342092737e+00 3.9011755215474025e-01 2.4496348004965332e-01 0 1 1
2154 1 3.3427567799018516e+00 8.1643855907606988e-01 1.7085170752599428e+00 0 0 1
4078 2 3.7122484386331247e+00 1.2922723906878943e+00 1.5137964562879980e-01 0 1 0
1783 1 4.9167171526021791e+00 3.9609831523582173e-01 8.2729019025857031e-01 0 1 0
1177 1 4.3277076795676992e+00 1.4410552200625744e+00 9.5836764929106943e-01 0 0 1
2805 1 3.7812632230696783e+00 5.1260503092789045e-01 7.4567532306875806e-01 1 1 1
4061 2 6.6485744234546722e+00 4.6792244818606354e+00 5.8140801750003863e+00 0 1 1
4319 2 5.6304208723051863e+00 2.8522521244266921e+00 6.9555179646633052e+00 1 0 0
2237 1 9.7147816366751396e+00 7.4676707404924807e+00 2.8472710863716846e+00 0 -1 0
3415 1 8.2908205230834930e+00 6.8696508524132254e+00 5.7742267503975864e+00 0 1 0
1861 1 8.5393093812284846e+00 8.9826080043280392e+00 6.6187313072589040e+00 0 0 0
1707 1 7.6546047064737861e+00 5.7053837425500777e+00 7.0920998285704409e+00 0 0 -1
3889 2 6.4718121631177272e+00 8.1251203240799139e+00 1.7530347560933763e+00 0 -1 1
4118 2 5.6908504112445613e+00 9.2871163324404016e+00 1.4593885144538215e+00 1 1 1
2059 1 7.7161011471213827e+00 1.9128492951526814e+00 3.8043462746849701e+00 0 0 0
2730 1 8.8278878067014439e+00 3.1768793553455636e+00 8.8589048279061053e+00 0 0 0
3611 2 6.6773464068087982e+00 2.0181295394687386e+00 6.3299517770345322e+00 0 0 -1
2935 1 1.0377647276999040e+01 1.5803907472695606e+00 6.5934179245798870e+00 0 1 -1
128 1 8.8833422988707937e+00 4.2074201601441423e+00 8.7755102773732450e+00 -1 0 -1
245 1 5.5058927931775798e+00 9.3965271568607687e+00 4.8758201688497289e+00 0 0 0
153 1 3.4422504977779065e+00 6.5092117508595191e+00 8.0056560812694659e+00 0 0 0
2721 1 1.2362423405644831e+01 7.8510508532897898e+00 2.3808100417285201e+00 0 0 0
2161 1 1.1089525121165277e+01 6.2524219819613753e+00 8.0385266131123814e+00 0 0 0
3793 2 1.0382243071818706e+01 3.4230776766753310e+00 6.7187151973388071e+00 0 1 -1
149 1 9.5264976448671934e+00 9.6942837570240847e-01 1.9181454167144256e+00 -1 0 0
671 1 9.9272187339308484e+00 7.9995230750535828e-01 7.4002977171539062e+00 -1 0 0
3626 2 1.5693829266458974e+00 2.0520400015452278e+00 1.3624609905332799e-01 0 0 0
1535 1 1.0017434265135060e+01 9.2719572264975874e+00 9.5304959661974786e-01 0 0 1
3986 2 1.0633803413996791e+01 2.3112644843837895e+00 7.2420633062055639e+00 0 0 -1
1055 1 3.2538763091455984e+00 1.5392150480264797e+00 9.1994368517536063e-01 0 0 0
3784 2 2.4402870728958708e+00 1.7579266366902833e+00 1.1793782461867679e+00 0 0 -1
629 1 2.1786278123796396e+00 2.4663633004593253e+00 6.4754666069973166e-01 0 0 0
1563 1 3.1215888244037222e+00 2.5770673995501898e+00 1.2860664131324315e+00 0 0 0
576 1 3.9857370059772999e+00 3.0810799012900505e+00 5.6251601305031385e-01 0 0 0
1632 1 3.8622552640576489e+00 1.7444181814112278e+00 1.8534678834372409e+00 0 0 0
3737 2 3.9376012194121435e+00 2.2033481195314377e+00 1.0087013559154234e+00 1 1 0
3175 1 4.8414705614075721e+00 2.3172297081073561e+00 8.1105459634326416e-01 1 0 1
1395 1 4.3010361066649008e+00 2.7604013240366418e+00 1.5964863597927470e+00 0 1 1
3814 2 4.6740609027412772e+00 2.8461591855887418e+00 1.1404788593297037e-02 -1 0 2
1104 1 4.0140834429531669e+00 2.0808286271850038e+00 1.9477953753408220e-01 0 0 0
1604 1 8.7553537479785124e+00 1.9471042330602080e+00 3.4217417275747706e+00 0 0 0
4201 2 8.9154961969433888e+00 7.4221057072403616e+00 1.7563329593168260e+00 0 -1 0
2029 1 6.4556109701321027e+00 1.9200162761988229e+00 5.4879299941594875e+00 0 0 0
4209 2 2.8828510778235921e+00 5.6561596504915013e+00 5.5873787172827365e+00 1 0 0
723 1 6.7254981340767488e+00 2.1427192484250154e-01 5.8952021754137025e+00 0 0 0
2275 1 9.8511726615243642e+00 8.5073632333687215e+00 1.8668124193945176e-01 0 0 1
1793 1 9.1236705659304249e+00 6.1860444817572917e+00 5.3203462063932987e+00 0 0 0
3961 2 7.9831105330024981e+00 1.7425606382149716e+00 6.3720533063860900e+00 0 0 0
3716 2 7.7533084354953790e+00 1.7475370008237732e+00 1.7668131866173169e+00 0 0 0
146 1 3.1116102670503292e+00 5.7842200647683599e+00 9.6431294706794581e+00 0 0 -1
2233 1 1.1205102988660618e+01 4.8380903028881059e+00 2.3173034000146884e+00 0 0 1
3938 2 8.8737717449603934e+00 4.5202647235750524e+00 5.1036365229683769e+00 0 0 0
3341 1 1.0834180899846057e+01 3.3828394187052342e+00 4.2526181734953026e+00 0 0 0
4246 2 8.7103904522418336e+00 7.3554880166546823e+00 7.8150631588300623e+00 0 0 -1
1722 1 3.4125526201631837e+00 1.6508687981339837e-01 2.6134079593128052e+00 0 0 1
650 1 1.1822513182014319e+01 5.1923537473691432e+00 4.3604863046387381e+00 0 0 0
1243 1 6.0218228806186591e+00 9.4197641610169462e+00 7.3266531551420346e+00 0 0 0
2666 1 1.0182133488282537e+01 2.4196295495504296e+00 1.7155216978420984e+00 0 0 0
810 1 3.0158760757211498e+00 3.4477294247057833e+00 6.5332429220307719e-01 0 1 1
307 1 5.4661634632677600e+00 9.6208981562615801e+00 3.0542877863625093e+00 0 0 0
981 1 4.1278311261755647e+00 4.0762889315752426e+00 7.8960599020458655e-01 0 1 0
3546 2 3.1413825620971361e+00 4.3211450238947169e+00 3.2445937157698490e-01 0 0 1
2081 1 3.6081890672684942e+00 3.5005371804324725e+00 1.5704450730815591e+00 0 0 0
2050 1 2.4191858056572486e+00 3.4902190312703452e+00 1.5662125561900895e+00 0 0 0
1503 1 5.8788138175464528e+00 7.9763094410823907e+00 8.7499049940464815e+00 0 0 -1
639 1 4.9357401069881472e+00 3.4421070797334345e+00 1.0229116897418151e+00 0 0 0
1153 1 5.3295694876646742e+00 4.3528897403823006e+00 1.4428293457530774e+00 0 0 0
1946 1 4.9204042544953612e+00 4.6638058094162886e+00 4.1128346308580555e-01 0 1 0
45 1 6.1814834310017091e+00 3.5624460027422677e+00 6.9763579462211922e+00 0 0 -1
3844 2 7.6090468683832295e+00 4.3601374927688221e+00 3.1150128154201981e+00 0 0 0
2414 1 5.9118709741943256e+00 1.4673230001940716e+00 1.6710697274690749e+00 0 1 1
140 1 5.4821218347520304e+00 3.7952994934605346e+00 4.1803587544945326e+00 0 0 1
1216 1 8.5041693475931694e+00 8.6282181035922498e+00 2.6865787954222435e+00 0 0 0
2036 1 7.9868161692190878e+00 3.7714727350533659e+00 8.9610622889362439e+00 0 0 -1
1691 1 6.6201845296475685e+00 9.9772945528124823e-01 1.0441043699035999e+00 0 0 1
3966 2 7.4794081813755859e+00 6.1681314829846059e+00 4.3011470999682089e-01 0 -1 0
2198 1 9.2787985801798687e+00 5.1417949141300685e+00 8.6106443360483560e+00 0 0 0
2630 1 9.1233839163905319e+00 6.5694993214289612e+00 3.1321637269587352e+00 0 0 0
2579 1 1.0830367529662658e+01 5.7537818924176776e+00 4.1022560274947528e+00 0 0 0
749 1 1.0513424014305100e+01 7.0961059363474446e+00 8.0151070187458480e+00 0 0 0
116 1 1.0473360605562302e+01 4.0908569116173528e+00 5.0326947654096896e+00 -1 0 -1
808 1 1.1372364275360853e+01 7.6061727300617701e+00 8.4906688124704832e+00 0 0 0
1743 1 8.5719433033577168e+00 2.2855358677551032e+00 1.7122218636678679e+00 0 0 1
3305 1 1.0736756782858818e+01 8.2407690181177742e+00 5.1638323318435404e+00 0 0 0
2062 1 9.7703279146874014e+00 1.0664424043722807e+00 4.4837049438229091e+00 0 0 0
1089 1 2.4645381513361584e+00 1.2481587327639228e-01 4.3240641543180001e+00 0 0 0
655 1 3.7489984738007971e+00 5.8349891432540808e+00 1.1169086455023893e+00 0 0 0
527 1 1.0858013142431160e+00 2.1049528153362700e+00 1.8962104844058583e+00 0 0 0
2653 1 4.4739059435640414e+00 4.9585106905015897e+00 1.3420208379797645e+00 0 0 1
537 1 3.5827284927439145e+00 4.9913587793147016e+00 5.2532151542436301e-01 0 0 0
80 1 4.7855283139552824e+00 5.7744579576346338e+00 7.4124287832182822e-01 0 0 -1
4073 2 4.4766020918873419e+00 4.6954084139976171e+00 2.1736543098007775e+00 0 0 0
3679 2 4.6276583072342001e+00 5.8078874927022390e+00 1.7625353910473736e+00 0 1 2
1626 1 6.3081727037929678e+00 7.2404060655783713e+00 4.8541353483168279e-02 0 0 0
2357 1 5.9000750965907987e+00 5.2496174307568007e+00 5.8600700021564356e-01 0 0 0
2072 1 6.9744395296845489e+00 6.2683005371965717e+00 2.3012912957492682e+00 0 0 0
2497 1 5.2722609647989263e+00 5.4380900451024647e+00 9.4576704084543604e+00 0 0 -1
1215 1 5.4546397395041986e+00 5.4384034580820240e+00 1.4957845889636994e+00 0 0 1
2665 1 6.6565189538049250e+00 6.2418666663442588e+00 5.3383566610099975e-01 0 0 1
3455 1 8.1370335806997751e+00 5.4108867771586517e+00 8.9202497749183056e+00 0 0 0
4019 2 6.4671863952049886e+00 7.8906541535598871e+00 6.8114302635544099e+00 0 0 1
2112 1 6.4531813442167500e+00 2.0636148896549726e+00 2.4678740265445773e+00 0 0 0
3338 1 8.4324777234867714e+00 6.8483168191850865e+00 4.6901785302541628e+00 0 0 0
3548 2 7.3373034310299019e+00 1.5206976262777978e+00 5.2355829209124103e+00 0 1 0
3255 1 1.3299409481782599e+01 8.4187403296052867e+00 8.6938096035120029e+00 0 0 0
2555 1 8.5591177651600070e+00 4.3795201197671272e+00 2.9208714676147385e+00 0 0 0
3541 2 1.1753757623518480e+01 9.5479370108856472e+00 6.0847146073594756e+00 0 0 -2
1724 1 8.0824185952973640e+00 5.4836366744580163e+00 3.2398090519880812e-01 0 0 1
1991 1 4.6936342508359310e+00 3.4568068365040266e-01 9.0078047648734341e+00 0 0 -1
4013 2 8.9583023618109756e+00 5.4537599428612378e+00 9.3250729040793310e+00 0 0 -1
2111 1 8.9376039762316672e+00 5.4270649177716468e+00 3.2604527738768980e+00 0 0 0
3775 2 8.1486631106729703e+00 1.4611646281476594e+00 7.4465330202948996e+00 0 0 1
3738 2 9.8772626904971226e+00 2.6730617937868919e+00 5.7146607279540547e+00 0 0 -2
1989 1 7.2549146314700437e+00 1.3697870964943978e-01 6.8035816245859442e+00 0 0 0
2000 1 8.5643552433167027e+00 9.5915824720530622e+00 3.0849178713217711e+00 0 0 0
1191 1 4.3391614105218048e+00 7.3972792654502042e+00 9.3690717569549218e+00 0 0 -1
4287 2 3.6759720903375261e+00 4.8556563471647145e+00 1.4225466654694765e+00 0 0 0
872 1 1.2749293344584682e+01 8.3037062469960770e+00 2.9784464697972352e-01 0 0 0
1963 1 4.9104298352337263e+00 8.8479262008332853e+00 8.8050623278606910e+00 0 0 0
3539 2 4.8146722756844529e+00 6.6446173536341684e+00 4.5473572525845773e-01 0 0 1
1101 1 4.4466989090915234e+00 6.5729504201576088e+00 1.2803642459653237e+00 0 0 1
1364 1 4.8012660664442226e+00 6.4743154273443988e+00 9.2356858996350955e+00 0 0 -1
1222 1 3.8134175990983339e+00 6.6369249522811860e+00 3.8462443749157610e-01 0 0 0
1980 1 5.2756756974321117e+00 7.3289316999477201e+00 9.6054484797377366e+00 0 0 -1
312 1 1.0785708549160439e+01 3.6361915559326059e+00 1.2498997258611155e+00 -1 1 1
2416 1 7.2398322153483790e+00 6.6840601699454378e+00 1.3303952048374610e+00 0 0 1
551 1 5.6196817455472594e+00 6.3621753547417192e+00 3.3364750321261832e-01 0 0 0
4230 2 7.9282024875600730e+00 7.4084892798214703e+00 9.6823000316546826e-01 1 0 0
1784 1 7.9693364112094862e+00 8.2984126208760287e+00 9.1807053560844256e+00 0 0 -1
2536 1 7.0709843510776631e+00 1.2196097103168568e+00 6.3215182101850234e+00 0 0 -1
2954 1 9.4420686354710881e+00 7.5424838316869698e+00 9.6150032845981936e+00 0 0 -1
1230 1 5.6948848343497476e+00 5.0414953807818295e+00 3.2149795434803230e+00 0 0 1
3653 2 1.2180959467477193e+01 7.9043810797382719e+00 5.9252690177436573e+00 -1 0 0
4032 2 8.5264532378014657e+00 9.4287951619667503e+00 5.7687017127030327e+00 1 0 -1
2881 1 1.1677628833720178e+01 7.7058020957793563e+00 7.3535634369039404e-01 0 0 1
2830 1 1.2611646722057296e+01 6.7529845425974218e+00 7.9237277416559335e+00 0 0 -1
2791 1 7.3698823648478129e+00 2.0203576159568128e+00 6.9603561689207289e+00 0 1 -1
481 1 1.1418116532818019e+01 4.2406080548253504e+00 7.5573424904938893e+00 -1 1 0
203 1 4.5410063124039768e+00 8.5115845267584671e+00 1.6987023485904204e-01 0 0 1
3103 1 5.5661879366295830e+00 2.3064939341559509e+00 8.4372833076984257e+00 0 0 -1
4221 2 7.4280692954574299e+00 3.1699161459607628e+00 6.0558391803670171e+00 0 1 0
2263 1 6.7796584413285395e+00 8.1924527307663091e+00 4.6793988397896846e-01 0 0 0
161 1 1.1086548837540491e+00 2.1030869962286913e+00 6.8957206707761713e+00 0 0 0
3064 1 4.3832704838492722e+00 7.4543884685198130e+00 7.7939799789222863e-01 1 0 0
204 1 5.7300972845114337e+00 7.6030967857998961e+00 2.0382753843974197e+00 0 0 0
1037 1 5.5113468728951460e+00 8.6461904723491867e-01 7.1042481395141470e+00 0 0 -1
3629 2 5.0567710357958138e+00 8.0762768790353743e+00 9.2027119583260752e+00 0 0 -1
1613 1 5.6937042477583732e+00 8.3732916671587709e+00 1.2149231213757979e-01 0 0 1
2200 1 8.3517070193256693e+00 5.4106519611054535e+00 7.8430319617336890e+00 0 0 0
738 1 9.2926046327715568e+00 8.2177193051730537e+00 2.1646804642215027e+00 0 0 0
2009 1 1.3225005743214931e+01 8.7196823031293569e+00 1.1467429760424648e+00 0 0 0
1908 1 7.8184743767189655e+00 8.1368956329704805e+00 6.4295578324064862e-01 0 0 0
2908 1 6.2057358264645543e+00 1.2050104589026960e+00 2.9919670720124514e+00 0 1 1
2076 1 1.1807641513822306e+01 6.5603498569275889e+00 8.6851008870799298e+00 0 0 -1
523 1 9.9527029636572362e+00 3.9229517203926019e+00 3.8499941265735473e+00 -1 0 0
3927 2 5.6656844621884295e+00 2.2225042214675450e+00 2.4637454099597042e-01 -1 1 1
4167 2 6.6834403390103807e+00 2.5594963268932678e+00 4.7768042594356492e+00 0 1 0
2173 1 1.1617291680774400e+01 8.4671628513131179e+00 1.8593060684683660e+00 0 0 0
4129 2 6.3195898678131979e-01 5.2377640740597786e-01 4.7692660460925085e+00 0 0 0
1997 1 5.4696881997395090e+00 6.4356808927685605e-01 9.5566650925978696e+00 0 0 -1
242 1 9.3959675422958853e+00 8.4735022416699088e+00 8.9082080753295276e+00 -1 0 0
2041 1 9.9077800865953485e+00 7.8010399815653280e+00 5.5242409691123013e+00 0 0 0
1656 1 1.1581461427052492e+01 9.5475041893785875e+00 7.7247866644552516e+00 0 0 0
2326 1 7.0490022421183802e+00 9.4874216624968337e+00 7.0631472947569414e+00 0 0 -1
3451 1 1.0323416085398620e+01 3.2065134194962339e+00 3.1582242901447035e+00 0 1 0
1171 1 1.0787612058040018e+01 7.2478039142449120e+00 2.4187405193288773e+00 0 0 0
2 1 1.0758901863848795e+01 6.5375471166357295e+00 3.2052037342448316e+00 -1 0 0
2931 1 1.0627123588657511e+01 4.1709165616401149e+00 2.9580842143338422e+00 0 1 0
3329 1 1.2729875205503578e+01 9.4089778571232099e+00 6.1879178856381385e+00 0 0 0
1259 1 1.1026819681783795e+01 9.3614899634239332e+00 2.0187039792570536e+00 0 0 0
74 1 1.1954609339819907e+01 5.5721548008845074e+00 8.5639297670677159e+00 -1 0 -1
1955 1 1.0547371427567029e+01 9.3652341552593015e+00 7.3812491320660332e+00 0 0 0
1875 1 9.0955516112538015e-01 1.0072679867754173e+00 1.8062995069113517e+00 0 1 1
3905 2 9.5506056237618830e-01 1.4309919843088403e+00 2.6061625455876278e+00 1 1 0
2405 1 1.8348898459204195e+00 1.5269434031756004e+00 2.2415106854743256e+00 0 1 0
27 1 1.3890931800630439e+00 6.5135726346338951e-01 2.6809035671381776e+00 0 1 0
2689 1 1.7398775904571584e+00 1.3276851288483367e+00 3.2851594967231663e+00 1 0 0
3459 2 2.5626533754113296e+00 1.3386973495965915e+00 2.7819836133352789e+00 0 0 0
1032 1 2.5080294104815670e+00 6.4986468422201793e-01 2.2870825618782500e+00 0 0 0
820 1 3.4495444452207931e+00 1.2878878262313698e+00 2.7113257819291254e+00 0 1 0
2197 1 1.1622707203050240e+01 8.6496289093398584e+00 6.6282512590536913e-02 0 0 2
1863 1 4.4462253730404173e+00 8.4858700836812451e-01 1.7960891413679436e+00 0 1 0
1231 1 4.5223498691625155e+00 2.2103399470203400e-01 2.6956211862409729e+00 0 0 1
3639 2 4.3374170277553414e+00 1.1729586660721769e+00 2.8930251704956853e+00 0 0 1
2256 1 6.7735286749873600e+00 6.4573231243388838e+00 6.7346339954077381e+00 0 0 0
720 1 6.5709268626095358e+00 4.5510372800700001e+00 6.8944339651608146e+00 0 0 0
279 1 5.7147983116865468e+00 3.1131928122947805e+00 7.7841963164576562e+00 0 0 0
3760 2 7.4998113465729759e+00 5.9520741738697769e+00 2.8736946276846407e+00 0 0 0
1188 1 5.9789271530660058e+00 5.5939068013803184e-01 8.6805270707068978e+00 0 0 0
2911 1 5.8611730115323919e+00 2.3283993923762392e+00 1.0610824780719645e+00 0 1 1
3606 2 7.3798535081156444e+00 4.1232294014547222e+00 6.9084493296252623e+00 0 0 -1
1590 1 6.2645179878714821e+00 7.2310089693252717e+00 7.3007650858303652e+00 0 0 0
2680 1 7.4230002534307813e+00 1.0959138921945635e+00 7.3868136787265426e+00 0 0 0
1587 1 8.7847107118011394e+00 6.2976929228840177e+00 1.1926460193600356e-01 0 0 1
3517 2 1.1374956148328765e+01 7.1675684266949586e+00 3.3700034650006763e+00 -1 -1 0
1695 1 1.0770341784230116e+01 8.1231135606717153e+00 3.8634088996007920e-01 0 0 1
2519 1 9.4795603491243945e+00 7.0664263493942610e+00 4.8989992082382248e+00 0 -1 0
2592 1 1.1185128574825001e+01 5.6409146745267957e+00 1.0181809880729382e+00 0 0 0
234 1 1.0668747684722907e+01 5.7207698283237045e+00 1.9950698239946159e+00 -1 0 1
3803 2 8.0939866959327684e+00 3.5941904007180903e-01 7.3282740326636517e+00 0 2 0
2539 1 1.2467567381333698e+01 6.9730579321356192e+00 1.8563923927625017e+00 0 0 0
3237 1 1.3597721751286581e+01 9.2853369453306218e+00 4.8387591607281166e+00 0 0 -1
1363 1 8.2694917918214408e+00 1.1519764037798898e-01 1.5344438017374760e+00 0 1 0
427 1 2.0973749157914519e+00 2.4318321374882155e+00 1.7909240764580803e+00 0 1 0
699 1 1.2350559834823009e+00 2.2094486437945045e+00 2.9020763240147205e+00 0 0 1
1026 1 1.7353612610119229e+00 3.1090368603934673e+00 2.4494461782666499e+00 0 0 0
354 1 2.8574459034651718e+00 1.8663749793011752e+00 2.0623236941812340e+00 0 1 0
4141 2 3.5724379506091504e+00 2.5439976151843058e+00 2.1198328844305192e+00 0 2 0
2060 1 2.3002872181210683e+00 2.2395513699986367e+00 2.9481145829971038e+00 0 0 0
753 1 2.9202364297034511e+00 3.1035633377088701e+00 2.3479190836022759e+00 0 0 1
2422 1 3.4338888626784509e+00 2.3635897116139759e+00 3.0549804784857275e+00 0 1 1
1250 1 4.9676501994160880e+00 1.9772119948044924e+00 1.8189528258902978e+00 0 1 0
706 1 4.3489938622618851e+00 1.9713602501095253e+00 2.6904625510541540e+00 0 0 0
164 1 1.0070953513299791e+01 8.8620229085272761e+00 1.9097193598884390e+00 0 0 1
3921 2 4.7473525012194742e+00 2.6759011766583436e+00 2.3714547672550856e+00 0 1 -1
3124 1 5.3562592268803471e+00 2.9481228739729879e+00 1.8020540279266271e+00 0 0 1
3991 2 6.8868635472334923e+00 6.4463896148994486e+00 4.6405981931543456e+00 0 1 1
3029 1 6.9005057982003395e+00 3.7217357670131914e+00 3.5924807723291239e+00 0 0 0
2196 1 5.9389273817176846e+00 2.2167864632601311e+00 4.4009144186004931e+00 0 0 1
16 1 5.1048128197878384e+00 3.1210233307891494e-01 6.2562240101046234e+00 0 0 0
3969 2 7.1151353849687498e+00 2.3729265200482446e+00 8.7862787911556488e+00 0 0 0
1094 1 6.7474735462394566e+00 2.8157871401932937e+00 7.4230359583463379e-01 0 0 0
1844 1 8.1874370594208479e+00 6.1833174665383810e+00 3.3812628106611471e+00 0 0 1
2739 1 6.7974768994775054e+00 1.0411209482834407e+00 2.0996728907790558e+00 0 0 1
2723 1 7.8978749412998663e+00 2.7090929957953556e+00 8.7601783197255685e+00 0 0 0
1184 1 1.2235171761858185e+01 7.0691886621025537e+00 6.2555575319543806e+00 0 0 0
3734 2 1.0310540261044888e+01 7.1666176331383165e+00 9.6269729751463853e+00 -1 -1 0
1829 1 1.1108035551941544e+01 9.2801334806430553e+00 5.5464652459694124e+00 0 0 0
3756 2 1.2932676090566122e+01 9.1821047634482351e+00 3.5228069254131356e+00 0 0 1
2762 1 9.4054142592069496e+00 4.1196251353232488e-01 5.3355857492377483e+00 0 1 -1
1689 1 9.1758154261329121e+00 4.7014739761033653e-01 8.3358281301067443e+00 0 0 0
1241 1 1.0726914018341425e+01 9.2368032947950809e+00 4.4902023324521378e+00 0 0 1
2427 1 2.2932192052105962e+00 3.9983927795940626e+00 2.5788168991123879e+00 0 1 0
4235 2 3.5833187228315495e+00 3.1373003760528846e+00 3.2704744524408476e+00 1 0 -1
649 1 3.0059463802513835e+00 4.4182088208038204e+00 1.2439113091755216e+00 0 0 1
3508 2 3.0533454754819540e+00 3.9121640325165083e+00 2.0756872425672337e+00 0 1 1
1639 1 3.7186492409118652e+00 4.3881752274922023e+00 2.1464336537761683e+00 0 0 0
1277 1 3.2407815092273280e+00 3.9176921427042513e+00 2.9872550705992378e+00 0 0 -1
1536 1 3.9314306044622009e+00 3.1792254095686694e+00 2.5217115193126465e+00 0 0 0
3869 2 4.3876404480474331e+00 3.9939232981783079e+00 2.7356857618174328e+00 0 0 -1
533 1 4.6158193481005387e+00 3.7517781010667481e+00 1.9145591604073489e+00 0 0 0
1158 1 5.1264311270482308e+00 3.3800867236892689e+00 2.7873024525821792e+00 0 0 0
1035 1 5.2439700062462897e+00 4.3507907134788750e+00 2.5799280238416569e+00 0 0 1
2936 1 8.1391313162775862e+00 4.6772987030107940e+00 4.7249089840111065e+00 0 0 1
1371 1 5.4801379110499688e+00 3.1615173161632799e+00 6.1744797400783833e+00 0 1 0
1880 1 8.7682907925240663e+00 7.7998029082672771e+00 5.4849882907391159e+00 0 0 0
2789 1 8.6516335136776892e+00 7.1694418512069582e+00 8.7424634320239250e+00 0 0 -1
642 1 6.8570706256843055e+00 1.7348045077083867e+00 4.4918592411754172e+00 0 0 0
3800 2 7.5705611303041023e+00 5.3972087870835983e+00 4.5158227051180297e+00 0 0 -1
1316 1 9.4977133978037198e+00 1.3938012293640338e+00 2.0206734170527593e-01 0 1 0
2155 1 6.3829977132673541e+00 4.1801217983300654e-01 7.4528177175509986e+00 0 0 1
2234 1 7.5017619065646999e+00 2.4024752200260058e+00 2.1870051926264962e+00 0 0 1
2661 1 8.0265793234207869e+00 3.7269910415623118e+00 6.4335340100216305e+00 0 0 1
2167 1 8.8456725768689246e+00 1.6021888055068507e+00 7.9899918533080498e+00 0 0 0
3848 2 9.7360576253617879e+00 3.6334860372267523e+00 5.5045946465606441e+00 0 0 -1
1835 1 8.3503306527912287e+00 1.6198764689262546e+00 8.3630873184454413e-01 0 1 0
3135 1 8.9962786395407246e+00 2.4400815548664463e+00 4.2322941828163013e-01 0 0 1
1849 1 9.9154070559747005e+00 6.8994625563109757e+00 3.7684422833484441e+00 0 0 0
3100 1 1.0052610031100206e+01 4.8289636888346532e+00 4.2646810761176974e+00 0 0 -1
2444 1 9.5149042720652588e+00 5.6871552862608921e+00 2.3781012925094713e+00 0 0 0
2120 1 9.4445100508186730e+00 1.8535963379133951e+00 2.3939024994218454e+00 0 0 0
1921 1 6.7616679980646355e+00 9.6364796961410679e+00 6.0206620649153209e+00 0 0 0
3411 1 9.9490161221957454e+00 1.2913877367385902e+00 5.7350690408664775e+00 0 1 0
4053 2 2.3281227324810296e+00 4.3657140030393409e+00 1.7847843050715322e+00 0 0 -1
1018 1 1.1579255398362646e+01 6.6373679276981861e+00 8.4789869697853704e-01 0 0 -1
717 1 1.0944565235328707e+01 4.4380080643430446e+00 3.9769143604189696e+00 -1 0 1
1083 1 3.9555222425694243e+00 4.7044068937974952e+00 3.1763998669009612e+00 0 0 0
662 1 2.8902135015492560e+00 4.9679105612590044e+00 2.0967206896724018e+00 0 0 1
635 1 2.6896369688886730e+00 4.8297213395843368e+00 3.1334873447139207e+00 0 0 0
3481 2 1.1324665477983647e+01 9.2530541588611950e+00 9.1760107132025084e+00 0 0 0
1628 1 3.4054198681359598e+00 5.5609142076322202e+00 2.9977737213533113e+00 0 0 0
3475 2 4.2542349267355064e+00 5.6842266009395344e+00 2.8428566662000025e+00 0 0 -1
1421 1 6.2185558647405443e+00 4.0571640359077152e+00 7.9411635392640676e+00 0 1 0
1040 1 5.9028585342708730e+00 5.7904887657864155e+00 2.4929285382263839e+00 0 0 1
3877 2 1.0057452366975692e+01 8.6945570726380481e+00 4.8770235637176773e+00 0 0 0
1156 1 4.9379762799761231e+00 5.3493804792067117e+00 2.4970815053635347e+00 0 0 0
1745 1 5.9758138547597524e+00 1.1312440845701974e+00 6.1461833833012687e+00 0 0 0
2146 1 6.3487502715755220e+00 4.4628524545670771e+00 1.2079878146988270e+00 0 0 0
2912 1 1.0143916709671489e+01 3.0257937103212145e+00 4.9450011716143392e+00 0 1 0
1236 1 6.8818255110320194e+00 1.9564199682016685e+00 1.4249382296942679e+00 0 0 1
249 1 7.0571063923044060e+00 2.7440024742025932e+00 3.0387055153483606e+00 0 0 1
2139 1 8.9276200649651773e+00 7.0155446973928139e+00 7.0160843149087544e+00 0 0 0
3478 2 7.1658266919340914e+00 2.8057922860432627e+00 1.5415370821144434e+00 0 0 1
4243 2 1.0373352321186761e+01 9.0863059203968159e+00 2.6606681659260927e+00 0 0 0
1102 1 7.0432661881955907e+00 4.9079063449709226e-01 3.1443376570413570e+00 0 0 1
791 1 9.6728560737729126e+00 7.8455458072627522e+00 8.0478881220669614e+00 0 0 -1
581 1 8.8335415048422163e+00 4.1472881621333810e+00 1.9158900749838907e+00 -1 0 0
2900 1 1.3162038714442208e+01 7.1212740134448147e+00 2.6717454348265859e+00 0 0 1
575 1 1.1780242023628883e+01 5.5486518595268777e+00 6.2809444273560455e+00 -1 0 0
1966 1 9.8734098928257357e+00 5.8423303854849884e-01 2.8664864552449139e+00 0 1 0
2609 1 9.1484508961277378e+00 4.1408400676522206e+00 6.6288471738117749e-01 0 0 0
3614 2 1.0204720165807444e+01 3.4157099754809330e+00 7.9803739918177747e+00 -1 0 -1
2803 1 1.1859101376815014e+01 8.6961604410643574e+00 5.8819379917727543e+00 0 0 0
1559 1 8.3154486503171086e+00 3.3088176185509366e-01 4.4348356635318531e+00 0 0 0
2835 1 9.5987747170558837e+00 4.6247263559267262e+00 9.4566673173129541e+00 0 0 0
2147 1 8.8875471879061294e+00 1.8384681213439051e-02 3.3538958046134031e+00 0 0 0
129 1 1.2975304888804416e+01 7.3029674294246316e+00 6.0025179454756616e-01 -1 0 0
3496 2 1.4209443454284180e+01 9.2786938391605336e+00 6.8471824480156718e+00 0 0 -1
224 1 4.1563114662816441e+00 6.3538348912212772e+00 2.3025240025721279e+00 0 0 0
1602 1 5.1982557351914753e+00 6.4662787393205168e+00 2.0648813975742346e+00 0 0 0
1410 1 4.4778800775576872e+00 7.3509040514634272e+00 3.0487824515826185e+00 0 0 0
1068 1 3.9368312560633747e+00 5.3774356464622377e+00 2.1354213364671488e+00 0 0 0
1160 1 5.3643441954403945e+00 7.1217819617944436e+00 1.0545008569418934e+00 0 0 1
3953 2 5.3004962485734683e+00 7.0935024174311589e+00 2.6711479426878877e+00 0 0 -2
1438 1 5.0086731702807823e+00 6.2879899007141482e+00 3.1277599655059873e+00 0 0 0
2840 1 8.1128765626525965e+00 7.1099353061057000e+00 1.7546007741067013e+00 0 0 0
1539 1 6.1203445817748259e+00 6.4646206712315344e+00 1.5445941886882248e+00 0 0 0
1652 1 7.3762461571226989e+00 8.6995966196091707e+00 1.9977658644424219e+00 0 0 1
1388 1 5.4574255290247304e+00 7.0321894871811077e+00 3.7323619084422428e+00 0 0 1
2716 1 8.7665271354491932e+00 6.1677476209587869e+00 6.3056824717254711e+00 0 0 0
3547 2 6.1701949564798717e+00 7.5409476297293603e+00 3.5451807050914392e+00 -1 1 0
1577 1 6.4227629822298686e+00 2.0622177306883951e+00 3.5055772013498046e+00 0 1 0
588 1 7.2959031745881706e+00 4.7582881740253322e+00 3.8922686811999681e+00 0 0 0
376 1 1.3362762800429215e+00 5.7237360151924310e-01 9.5840167071684013e-01 0 1 0
1420 1 6.4143958304889255e+00 1.7683094877115002e+00 4.4568428889206940e-01 0 1 1
2494 1 6.0767336411183033e+00 3.8054774593490741e+00 2.1356350137252842e+00 0 0 0
2058 1 6.2672599884525244e+00 4.4730168023867760e+00 4.1607344525802663e+00 0 0 0
416 1 3.9447295484919148e-01 7.3126835178186378e-01 2.8473749156187611e+00 0 1 1
123 1 9.3384731352968338e+00 8.1217384467674609e+00 4.5383980746515951e+00 -1 0 0
2162 1 8.8871863211552231e+00 1.1972479387238244e+00 5.1339617025964479e+00 0 0 0
2373 1 1.0558820698210427e+01 5.2054722696741775e+00 2.2067866291758778e-01 0 0 0
3840 2 6.7216521778250566e+00 4.4198756399155972e+00 1.9848105153561082e+00 0 0 0
3405 1 1.1545146189992622e+01 5.0837983596897462e+00 9.4434591747055165e+00 0 0 -1
3115 1 8.6721397072078084e+00 2.7592066492818517e+00 2.6888966600639397e+00 0 0 1
840 1 1.1960681865797319e+01 8.0292148154274017e+00 5.0096016909019765e+00 -1 0 0
2504 1 8.2337739498673290e+00 1.7955757012229445e+00 2.5699421860602820e+00 0 0 0
4092 2 6.4871099781419170e+00 6.6064557499248600e-01 6.6457894714979844e+00 1 0 -1
3815 2 5.0296595493236200e+00 8.0694295686436135e+00 2.3358051496048162e+00 0 1 0
3634 2 1.0724294990546538e+01 5.9975823452435142e+00 5.0068360149901885e+00 0 0 1
3583 2 5.3480946488829719e+00 6.2508150064082368e+00 1.1826641467556485e+00 -1 0 1
1857 1 9.4241210247725764e+00 6.8306951759879002e+00 7.9406967674569664e+00 0 1 -1
2708 1 7.7339408788621444e+00 7.4035231086966640e+00 8.2642185156366867e+00 0 0 0
2061 1 6.6613631748435775e+00 9.4452403318848166e-01 5.2452586190139474e+00 0 0 0
1752 1 5.8489908274882314e+00 8.2370097409830052e+00 1.1144343044158995e+00 0 0 0
1832 1 4.6154996378652218e+00 7.4158811491354832e+00 1.9788402098796811e+00 0 0 0
428 1 1.0910269847421315e+01 4.7871731900986223e+00 6.8884952853760559e+00 -1 1 0
3678 2 1.1192012876519991e+01 5.6805926206258173e+00 6.8048318079610057e+00 -1 0 0