LAMMPS data file via write_data, version 12 Dec 2018, timestep = 29280

4320 atoms
2 atom types

0.0000000000000000e+00 1.9309999999999999e+01 xlo xhi
0.0000000000000000e+00 1.9309999999999999e+01 ylo yhi
0.0000000000000000e+00 9.6549999999999994e+00 zlo zhi
1.1779100000000007e+00 0.0000000000000000e+00 0.0000000000000000e+00 xy xz yz

Masses

1 1
2 1

Pair Coeffs # lj/cut

1 1 1
2 0.5 0.88

Atoms # atomic

3378 1 6.3293257226378730e-01 6.4875310579284673e-01 3.2995637663061383e-01 1 1 1
486 1 1.0928150534781853e+00 8.3806351497094067e-01 1.3310161904696103e+00 0 1 1
2399 1 4.1587204133001796e+00 9.4529741026480600e+00 1.2017193147821181e+00 0 0 0
332 1 5.0072613918062692e-01 1.5762261323859990e+00 8.3167137201104779e-01 0 1 0
964 1 1.7790662203958487e+00 7.8282442967195187e-01 5.5734705717106836e-01 0 1 1
1737 1 9.5278183816850550e+00 6.8914741390790795e+00 4.3024803200776160e+00 0 0 0
3697 2 1.4807966504556414e+00 1.6198784087233942e+00 7.4204756096469027e-01 1 1 1
135 1 2.4903401886386516e+00 1.6181977082779668e+00 1.0182627342841259e+00 0 1 1
1553 1 3.8850815681739945e+00 7.7663573139484154e-01 5.8607746876816058e-01 0 0 0
4065 2 3.2855402200533690e+00 1.4336795726452758e+00 6.4798875858619909e-01 1 1 1
1198 1 2.9056007487334394e+00 5.8985549174794150e-01 8.4063442690981027e-01 0 0 1
868 1 3.3707482726812574e+00 1.3692610691980165e+00 1.4684686462469352e+00 0 1 0
3422 1 3.8904027529488352e+00 4.7802783589742381e-01 1.6879175042838246e+00 1 1 0
1493 1 4.3873845810957484e+00 1.3958927829421124e+00 1.3360621394285537e+00 0 1 1
4074 2 4.6220325278344703e+00 5.8093648964763256e-01 1.0612558024048728e+00 0 1 1
3203 1 4.9524471791503348e+00 1.0872867505555588e+00 4.5013715936857607e-01 1 0 0
1264 1 5.5896243140402397e+00 1.3654463656304263e+00 1.2867748461844892e+00 0 1 0
4014 2 9.7818990938251744e+00 2.5658230339564656e+00 3.2892956264595705e+00 0 0 1
3758 2 5.7594032083172468e+00 5.7485644056645901e-01 1.7018817080782531e+00 0 0 1
663 1 6.3202372154669169e+00 6.1383274442200075e-01 1.1137578372769366e+00 0 0 0
963 1 6.0886962986724065e+00 1.1545335162603187e+00 2.7165363139292720e-01 0 1 1
4222 2 6.2092613715724712e+00 3.2947463933549503e-01 2.1998244608435630e-01 1 0 -1
899 1 9.8332431282078936e+00 9.0191283378680271e+00 4.8441493105707103e+00 0 0 0
1252 1 7.0101622720042442e+00 6.9436936249301917e-01 2.9740462829094533e-01 0 1 1
2154 1 7.2679438734715855e+00 8.3523080793357307e-01 1.4712196587906470e+00 0 0 1
4078 2 7.5824456185491904e+00 1.2076136972187956e+00 7.4974986041745906e-01 0 1 0
1783 1 8.8354905486489059e+00 3.1881122922332322e-01 1.0561157631727933e+00 0 1 0
1177 1 8.4447449704712856e+00 1.2599015002067808e+00 8.1566100591847057e-01 0 0 1
2805 1 7.8383797111194919e+00 3.1544817111114620e-01 7.9451355887784725e-01 1 1 1
4061 2 9.3840432768259703e+00 6.6840511984221367e+00 6.7083793664135385e+00 0 1 1
4319 2 9.4339478169505284e+00 3.0948525019951942e+00 6.9944064599501736e+00 1 0 0
3903 2 8.4215021087458943e+00 5.4025937227334142e-01 2.6710644032866343e-01 0 1 -1
1118 1 6.8374746564092339e+00 1.6998474175429132e-01 7.0698295122091919e+00 0 0 0
2926 1 1.1711001476826228e+00 2.3659688268497545e+00 5.8554415977000041e-01 1 1 1
1707 1 9.8906215905740904e+00 7.5068712487449165e+00 8.1251445591361868e+00 0 0 -1
3597 2 4.6061560225690534e-01 3.2026330292933527e+00 1.4516341161598456e+00 0 1 0
3096 1 1.3090811634789459e+00 9.6542768958587324e+00 3.1381071839772110e+00 1 0 1
885 1 2.1502377234683250e+00 2.6518904265423795e+00 9.9795977491409671e-01 0 1 1
2711 1 1.9821832988894212e+00 1.9988970987810482e+00 1.5919577074185856e-01 1 1 1
512 1 1.3250060957822281e+00 3.2805001752508978e+00 1.2334300944588126e+00 0 0 0
3535 2 2.8090503528964605e+00 3.0690271726151863e+00 1.3832329069391733e+00 0 1 0
1554 1 2.8027465780837812e+00 3.1631667209645267e+00 2.3692334695124281e-01 1 0 0
3224 1 4.0660257411683220e+00 1.8999358073507646e+00 4.5632363662720482e-01 1 1 0
1822 1 3.1948430606648013e+00 2.3342103832235579e+00 1.0058655941410319e+00 0 1 0
1031 1 4.2440050010839157e+00 2.6351033689712486e+00 1.2517993803472349e+00 0 0 0
3604 2 3.7314790445547024e+00 2.6550874756008231e+00 3.2855650075373927e-01 0 0 0
4308 2 3.8847883156619316e+00 1.9913746240909200e+00 1.8258620169435764e+00 0 0 1
640 1 4.5442332862189936e+00 3.0335396758491600e+00 3.1963571466308111e-01 0 0 1
1704 1 5.5771540955245387e+00 2.9767701475497494e+00 2.2944296378724269e-01 0 0 1
3626 2 5.4863859747697408e+00 1.7809776425980535e+00 1.6530626124601863e-01 0 0 0
100 1 5.3788214035612967e+00 2.9655316041593527e+00 1.2800705819980025e+00 0 0 0
951 1 5.0160513620035285e+00 2.1374779492632614e+00 8.1277352320122420e-01 0 1 1
1055 1 6.8280836789185892e+00 1.5727198261164617e+00 9.4091114522017527e-01 0 0 0
3784 2 6.4379334902948040e+00 1.1651941927821683e+00 1.7412458184682358e+00 0 0 -1
629 1 6.0392001752600324e+00 2.1748850123751158e+00 8.5438700284064995e-01 0 0 0
1563 1 6.9554003379339884e+00 2.5440844041215951e+00 1.3797302269308784e+00 0 0 0
576 1 7.6310736669347650e+00 3.1627101360060696e+00 6.1632925687505669e-01 0 0 0
1632 1 7.7587215462214463e+00 1.8003754024597423e+00 1.4019678135908662e+00 0 0 0
3737 2 6.8282491269568721e+00 2.2809025416697648e+00 4.1023603760046506e-01 1 1 0
3175 1 8.7291580281670083e+00 2.3364144612979381e+00 6.4551677216797942e-01 1 0 1
1395 1 7.9679912153024626e+00 2.7837116220275213e+00 1.5395261184257902e+00 0 1 1
3814 2 8.2007689150388678e+00 2.8701199584918977e+00 1.0110689778901728e-01 -1 0 2
1104 1 7.6438937163725580e+00 2.0306267779901783e+00 3.8422984187963954e-01 0 0 0
3383 1 6.1956668176094309e-01 3.2550916135567665e+00 2.2782738694735588e-01 1 0 1
547 1 6.6745892455378941e-01 4.0440611992423694e+00 1.3800411230166223e+00 0 0 1
2380 1 4.4933367066683871e+00 9.5706875804555516e+00 1.1173907446078613e-01 0 0 0
72 1 1.1331617915571719e+00 4.1129053028619307e+00 1.9731552717248063e-01 0 0 0
245 1 6.3288921020560798e+00 9.3981187387701368e+00 5.7018725053679047e+00 0 0 0
187 1 1.7741006441295071e+00 3.2614244610750669e+00 2.3145491841064211e-01 0 0 0
2007 1 1.6087243844501895e+00 4.4827964679920527e+00 1.0855594882737349e+00 1 0 0
201 1 2.1316826651860645e+00 4.2576692375931691e+00 8.4939418108635228e-02 0 0 2
3150 1 2.3054423467313025e+00 3.7503130498072648e+00 1.0748737813431828e+00 1 0 0
1485 1 3.5756152629161542e+00 3.3228649443975820e+00 9.0285207117637289e-01 0 1 1
380 1 4.1785020824074524e+00 3.9829945946435106e+00 2.1564117265526780e-01 0 1 1
34 1 3.1183289862993422e+00 4.1607693471731952e+00 4.9850856454093179e-01 0 0 0
1056 1 4.3867556019685479e+00 3.8804317342753447e+00 1.2786347068845267e+00 0 0 0
965 1 3.2590240560365222e+00 3.6724726765461919e+00 1.9337383785503957e+00 0 0 1
3915 2 5.0206802782543747e+00 3.7214707474088633e+00 5.9485230102223630e-01 0 1 1
555 1 5.1157182447133804e+00 4.6148067220668603e+00 7.5733086495225699e-01 0 0 0
1214 1 5.8486182073757487e+00 3.8715070103287683e+00 8.5024488858051228e-01 0 0 1
910 1 5.2795170138583876e+00 4.0127298871915569e+00 1.8345096293393819e+00 0 1 0
810 1 6.6256281080723891e+00 3.1768003414664086e+00 6.1587427775499870e-01 0 1 1
3493 2 6.8260022467875840e+00 5.5632348867682522e+00 9.5944162565215851e+00 0 0 -2
981 1 6.9431037115422143e+00 4.7459735749876826e+00 2.3593085517514634e-01 0 1 0
3546 2 7.1185814980303821e+00 4.0268788240437052e+00 6.5729377174787029e-01 0 0 1
2081 1 7.2343588711969353e+00 3.6907244391391569e+00 1.4828924484945982e+00 0 0 0
2050 1 6.1785395586439504e+00 3.4324455754824803e+00 1.7408396380866775e+00 0 0 0
1503 1 6.9032460424857671e+00 8.5765715726556024e+00 7.2796154983862327e-02 0 0 0
639 1 8.5612307862479966e+00 3.4027666282910762e+00 8.3189131323801546e-01 0 0 0
1153 1 8.9586900462783614e+00 4.5748957634016634e+00 1.0858432407135159e+00 0 0 0
1946 1 7.9767573861536620e+00 4.2330143286282524e+00 6.5224510930241120e-01 0 1 0
3094 1 6.0814754858522402e-01 4.9677317973957802e+00 8.1438663068097017e-01 1 0 0
2010 1 9.5301070023737700e-01 5.9773921006593067e+00 4.3784550404952022e-01 1 0 0
3920 2 6.1664852845332729e-01 7.8895093819520090e+00 2.4716946044676544e+00 1 0 0
140 1 9.4089984347937659e+00 4.1303069820086922e+00 4.2278696642863940e+00 0 0 1
1216 1 9.0787829358285332e+00 9.4885250933372518e+00 3.2209152540853867e+00 0 0 0
4081 2 1.8791488082330623e+00 6.0306032372025236e+00 4.8379895284324825e-01 1 1 0
1976 1 1.5497264238942923e+00 5.5187200437380772e+00 1.0889790259043639e+00 0 0 1
2670 1 1.6408385814978566e+00 5.1253765576952546e+00 2.0148304392372310e-01 1 0 1
1042 1 2.5022364003160509e+00 6.0102417451933254e+00 1.0821157232928456e+00 0 0 1
1233 1 2.5656828612895590e+00 4.9995030751368112e+00 8.9460641595413271e-01 0 0 1
3107 1 2.6848355492485645e+00 5.7429090223211743e+00 6.9113326247883397e-02 1 0 1
3059 1 3.3433589598996707e+00 4.6360525804825903e+00 1.5080069134627561e+00 1 0 0
2654 1 4.0550821026779378e+00 4.8703600793164892e+00 6.8658198567861140e-01 1 0 1
138 1 3.6111856973621559e+00 5.7834984019566482e+00 9.7762869333985747e-01 0 0 1
3671 2 3.2669554480892602e+00 5.1624464990563617e+00 4.3221738052835734e-01 0 0 1
3034 1 4.7862986411333956e+00 5.8207580121449016e+00 1.0859658976544120e+00 1 0 0
3971 2 5.5415755557581203e+00 5.5659890486770571e+00 7.0810965643914670e-01 0 0 0
146 1 6.2013775386858043e+00 6.0017823316929793e+00 2.8235549344042932e-01 0 0 0
655 1 5.7893718422765730e+00 6.0146282897051133e+00 1.4721075859241131e+00 0 0 0
206 1 5.8092273034764341e+00 4.9802681278122245e+00 4.5438231877674137e-02 0 0 1
2653 1 7.3215814097043443e+00 4.7672327877086884e+00 1.1912833149026967e+00 0 0 1
537 1 6.2614397406071696e+00 5.0314758179903736e+00 9.6555060454564801e-01 0 0 0
80 1 7.2030225111628647e+00 5.7809210017416612e+00 6.7391738331373641e-01 0 0 -1
4073 2 7.6123301909028500e+00 5.6835362013861737e+00 1.4516140870892598e+00 0 0 0
3679 2 7.7273820061703775e+00 5.0855836824123708e+00 4.2128513026678033e-01 0 1 2
1626 1 9.1010990631938391e+00 5.9808779888631687e+00 2.5771744156040902e-02 0 0 0
2357 1 8.7219312227389860e+00 4.9340803371153914e+00 1.4873678555764863e-01 0 0 0
2072 1 9.6063652696763899e+00 6.6061674753662594e+00 1.7782712107691550e+00 0 0 0
2497 1 8.2397485943564508e+00 5.6162673927501441e+00 8.2788984309774294e-01 0 0 0
1215 1 8.2622447695226562e+00 5.0491639185309491e+00 1.6575098867895437e+00 0 0 1
1651 1 5.3116756470925743e+00 9.4436234423179712e+00 5.2744009996361347e+00 0 0 1
626 1 1.2791205182513692e+00 6.9912422843990969e+00 2.1965707088157646e-01 0 0 0
1077 1 6.0929805337179488e-01 6.7675314669130566e+00 1.0149010689880178e+00 0 0 0
17 1 1.3575906908832913e+00 7.7164333228139981e+00 1.0931162337879103e+00 0 0 1
2052 1 2.3362738420552946e+00 1.4349580301231327e-01 9.4715134963168115e+00 1 0 0
2250 1 1.6895276893464457e+00 6.6341424700300164e+00 1.1732639297442105e+00 1 0 0
2303 1 2.1475267636227073e+00 7.7804982267783585e+00 4.0574683591218197e-01 1 1 0
3731 2 2.1527533728213641e+00 7.8843603117311751e+00 1.4659902977606458e+00 0 0 0
759 1 2.3347726953214023e+00 6.7184958067742278e+00 2.6871206471670511e-01 0 0 1
1830 1 2.5630891201500456e+00 7.1826291532411037e+00 1.2107459559362335e+00 0 0 0
1140 1 3.0700892227743113e+00 7.4227423800837471e+00 1.2386921271459148e-01 0 0 0
961 1 4.2279350757560792e+00 6.5509414855254482e+00 5.5186907308022992e-01 0 1 1
3878 2 3.2667495320386761e+00 6.6560030834738981e+00 7.0505632752393821e-01 0 0 2
543 1 3.7314770480505643e+00 7.3971307268358109e+00 8.7844613262580684e-01 0 0 1
43 1 4.3634164067382759e+00 7.7456690747820476e+00 6.5254324539823605e-02 0 0 0
985 1 5.4124406073916607e+00 6.5599625558580570e+00 6.4121531882866445e-01 0 0 1
270 1 4.8318676684222401e+00 7.3058853026487167e+00 1.0687866196679914e+00 0 0 0
1191 1 6.4517240755476397e+00 7.7382856394536628e+00 8.1873521234730717e-01 0 0 0
4287 2 5.7229542406164589e+00 7.2352590128265168e+00 1.1257072728250885e+00 0 0 0
1694 1 6.2028065164575716e+00 7.0357444770939175e+00 1.0205183296857628e-01 0 0 1
1963 1 5.4711327894088262e+00 7.7523333401745953e+00 3.3615585603392645e-01 0 0 1
3539 2 7.4622779957100063e+00 6.4242034848902279e+00 1.2507773087810925e-01 0 0 1
1101 1 7.7920557163407498e+00 6.5715807989323665e+00 9.5888481694872651e-01 0 0 1
1364 1 7.2148958689689868e+00 7.2627920160098469e+00 2.9483531564616561e-01 0 0 0
1222 1 6.7195937784141044e+00 6.7485338424518444e+00 1.0827621974756760e+00 0 0 0
1980 1 7.4056635232240033e+00 7.4595131505728354e+00 1.3961290841228760e+00 0 0 0
3871 2 6.2676344484745190e+00 8.0538315851587434e+00 5.3547934398498909e-04 0 0 0
2416 1 8.2072523336100662e+00 7.5685564389277991e+00 7.6772645341158174e-01 0 0 1
551 1 8.8485372093412025e+00 6.6094925801643152e+00 9.8821389331899245e-01 0 0 0
4230 2 9.1755666772212354e+00 7.1302774736318355e+00 3.9982809742115966e-01 1 0 0
1784 1 8.8585582693436571e+00 7.8252124343421352e+00 6.1225812954339466e-02 0 0 0
646 1 8.7501019324780227e-01 8.5973696626302090e+00 7.7673878130008100e-01 0 0 1
4253 2 4.7111510279010121e-01 5.4257104790124906e+00 3.3306795755820526e+00 1 0 0
1230 1 9.4294167344553941e+00 5.4979894472358835e+00 3.6458941761496662e+00 0 0 1
121 1 2.0385976847347500e+00 8.6896425936141100e+00 1.0842716717195533e+00 0 0 0
2833 1 2.7270916360791286e+00 8.5652083312297123e+00 2.7742099473396575e-01 1 0 1
959 1 3.0405767123835195e+00 8.0874548798305153e+00 1.1304000774412479e+00 0 0 0
998 1 3.1651410264184987e+00 9.1195238389440210e+00 1.0937679855134306e+00 0 0 1
3917 2 5.9069973815933929e+00 8.9575274236443754e+00 8.1672266042894304e+00 0 0 -1
645 1 4.2736841829621532e+00 8.1789692831073495e+00 1.2326745690637697e+00 0 0 1
203 1 3.7807473477233584e+00 8.6193973597208000e+00 4.6549589653414930e-01 0 0 1
238 1 9.5866059310288883e+00 3.2669713241830620e+00 2.7047619702068548e+00 -1 0 1
228 1 5.2978342294074041e+00 9.2912382100164237e+00 1.3427709290101073e+00 0 0 0
2263 1 4.8903820454419584e+00 8.6429508992306463e+00 5.6097003043967009e-01 0 0 0
1120 1 5.3994531081331596e+00 8.0361789930352252e+00 1.4188465438805737e+00 0 0 0
3064 1 5.9573183492032831e+00 8.6528710013942440e+00 5.9911197879753630e-01 1 0 0
204 1 6.1822037228661451e+00 8.7288716982918348e+00 1.6222423560718533e+00 0 0 0
1037 1 9.5549726562664450e+00 8.8456481074700533e-01 7.0121777015135844e+00 0 0 -1
3629 2 7.4161829801629402e+00 7.9777080349938183e+00 6.8721094999465282e-01 0 0 0
1613 1 7.1039636571415521e+00 8.6509409438183553e+00 1.1399256809180824e+00 0 0 1
2757 1 7.6241926109706943e+00 9.4959232487857168e+00 2.5844116395949124e-01 0 0 0
738 1 9.7666285504904025e+00 9.3599384398864096e+00 2.3399243708806985e+00 0 0 0
2626 1 8.0278326579796957e+00 8.6682870644954750e+00 7.3233106160421124e-01 0 0 0
1908 1 9.0683621818596674e+00 8.5504810524554333e+00 8.4924507045307196e-01 0 0 0
460 1 1.1563793370811044e+00 1.0430035933336619e-01 4.2948800889937839e+00 0 1 0
2165 1 9.4415423845319548e+00 9.3756813286555083e+00 1.3177401424615411e+00 0 0 1
1362 1 8.5583262786527428e+00 9.1409187276535597e+00 9.5928289048124871e+00 0 0 -1
3927 2 9.5070382689511170e+00 2.2165657684408107e+00 1.5106458710978102e-01 -1 1 1
983 1 1.0046422064684258e+01 8.2425851247911233e+00 5.6195752982629434e+00 0 0 1
3279 1 6.1371362826936426e-01 5.9318507998856729e-01 2.8255294323701206e+00 1 1 0
597 1 6.8208641089631561e-01 1.3975563560637674e+00 2.1768646259156856e+00 0 0 0
1997 1 9.3160843195869560e+00 6.7996172817134171e-01 1.5485906603410607e-01 0 0 0
242 1 9.5666532906136439e+00 7.1026082915581492e+00 9.3030749214068660e+00 -1 0 0
1869 1 5.2287045393102494e+00 1.1069543272032162e-01 5.6107936794021462e+00 0 1 0
3011 1 1.6895380331107208e+00 1.6438234517359080e+00 1.6757120390834608e+00 1 0 0
2595 1 1.5839903606204675e+00 7.5236276125402179e-01 2.3598216438520749e+00 0 0 0
2565 1 1.2377808385419056e+00 1.4536689474381217e+00 3.0574737309687503e+00 1 0 0
1262 1 2.2120713976537463e+00 1.6754808986457033e+00 2.6788755315208883e+00 0 1 0
950 1 2.5927673299902998e+00 1.0061122006307979e+00 1.9955617827508003e+00 0 1 0
1238 1 2.4284850518628973e+00 6.5238551087635976e-01 3.0604348618938353e+00 0 0 0
4130 2 3.4562726836863753e+00 9.8728547783552234e-01 2.2884833033475083e+00 0 0 -1
3430 1 4.2336201824600721e+00 1.3777406888391983e+00 2.4160010437458377e+00 1 1 1
3272 1 3.5849379414128886e+00 8.8726022714716424e-01 3.1473326528434367e+00 1 1 0
416 1 4.3691078480493237e+00 3.4571774660315602e-01 2.7586834312595494e+00 0 1 1
1875 1 4.9305876314407158e+00 7.4045250744970414e-01 1.8818055298428074e+00 0 1 1
3905 2 4.9868558956315461e+00 9.9696451196420521e-01 2.6644031890150841e+00 1 1 0
2405 1 5.7641227300467568e+00 1.2327346233024494e+00 2.2967496224973636e+00 0 1 0
27 1 5.5329697629461272e+00 2.5654796777459227e-01 2.6525883379285351e+00 0 1 0
2689 1 5.6998737229548482e+00 9.8120516269450020e-01 3.3813542734447197e+00 1 0 0
3459 2 6.5006401300950740e+00 1.1155876232961854e+00 2.9367220109412049e+00 0 0 0
1032 1 6.4927242196472346e+00 4.6376981071432150e-01 2.2371902723596246e+00 0 0 0
820 1 7.4868227263005780e+00 9.8407414449540354e-01 2.4871463289006721e+00 0 1 0
2513 1 9.5999533244309347e+00 3.6882503095975228e+00 1.2071357829785272e+00 0 0 0
1863 1 8.2954840032949075e+00 9.2509551137304302e-01 1.8129136473392520e+00 0 1 0
1231 1 8.3097709270330604e+00 3.9654806873688070e-01 2.7127279715017050e+00 0 0 1
3639 2 8.2377053995314213e+00 1.2524622340573415e+00 3.0253468905793333e+00 0 0 1
2256 1 9.5098261416113576e+00 7.5463566920235792e+00 6.1917722163864495e+00 0 0 0
89 1 7.5842487365866496e-01 2.3516508578164017e+00 1.5617152484618377e+00 0 0 -1
279 1 9.5492120697678224e+00 3.5822225629050579e+00 7.8086749966349611e+00 0 0 0
697 1 2.3222567499983442e+00 9.4844535157664165e+00 1.6946845827944619e+00 0 0 0
2910 1 6.1432164389628596e-01 2.3643885523006976e+00 2.7330855004428276e+00 1 0 1
2911 1 9.6829634259272304e+00 2.4970138062194378e+00 1.2008013268149718e+00 0 1 1
1647 1 1.1164254418102881e+00 3.2659961875806154e+00 2.1918151385581348e+00 0 0 0
1590 1 9.3039548631414384e+00 7.9666048400042113e+00 7.3380092451251784e+00 0 0 0
288 1 2.1767463037045447e+00 3.2586516018166556e+00 1.9463292439880349e+00 0 1 0
3586 2 1.6553721675930455e+00 2.6286809674734761e+00 1.6556783635083039e+00 0 0 1
636 1 1.6624210998292994e+00 2.5507143637606600e+00 2.5236252804520807e+00 0 0 0
3377 1 2.7503330830247186e+00 2.9017521249306117e+00 2.7509727520938565e+00 1 1 1
3319 1 2.5234833126399496e+00 2.2393088068698561e+00 1.8547332818237325e+00 1 1 0
3952 2 3.9509172649055002e+00 1.7083299541534223e+00 3.1480670958691950e+00 1 1 0
1123 1 3.2340053878232773e+00 1.7963673359718544e+00 2.4924319471133538e+00 0 0 0
538 1 3.4349288913615359e+00 2.6787068536789755e+00 1.9470206925967808e+00 0 0 0
610 1 4.1537858037944648e+00 2.3609452425763453e+00 2.6277388881268036e+00 0 0 0
4097 2 4.8113773858781208e+00 2.8475460182176611e+00 2.9142785800209317e+00 0 0 1
527 1 4.9730539198414974e+00 2.0792415169156468e+00 1.9295484159037795e+00 0 0 0
427 1 6.0423348859520942e+00 2.2139573593811726e+00 1.9116780343234803e+00 0 1 0
699 1 5.1856957362214109e+00 1.9578158164062993e+00 2.9235865844924174e+00 0 0 1
1026 1 5.5738709847139845e+00 2.9103753766901459e+00 2.4223865529465680e+00 0 0 0
354 1 6.8707555135070608e+00 1.7273731743379017e+00 2.1946724597258682e+00 0 1 0
4141 2 7.3175753462660067e+00 2.4728568079809334e+00 2.1290163961992086e+00 0 2 0
2060 1 6.2430903966201647e+00 2.0355246519403223e+00 3.0561274374772172e+00 0 0 0
753 1 6.6187297640497951e+00 2.8448815735513935e+00 2.4370203847132998e+00 0 0 1
2422 1 7.3362752285671036e+00 2.4752333358018372e+00 3.0853548250805418e+00 0 1 1
1250 1 8.8199379305631549e+00 2.0583991872186740e+00 1.8251133839613611e+00 0 1 0
706 1 8.0316787024155882e+00 2.0273901138704367e+00 2.4079676720540437e+00 0 0 0
914 1 2.0661048509681574e+00 1.4707822392118516e-01 8.4708386598368719e+00 0 1 0
3921 2 8.3577848528420340e+00 2.8606730817924451e+00 2.4449252199846003e+00 0 1 -1
3124 1 9.0005369021556252e+00 3.1188381565017016e+00 1.8660316998908308e+00 0 0 1
3991 2 9.3082684899259931e+00 6.1007519167521780e+00 4.2758654841494090e+00 0 1 1
2573 1 3.0441835233319909e+00 7.0692178479560372e-02 7.8780581202151021e+00 1 0 -1
2068 1 7.9968410725326917e+00 2.3602459241374102e-01 5.4256647482071507e+00 0 0 0
16 1 9.2537391769825703e+00 4.0718616839235938e-01 6.1154371921139434e+00 0 0 0
402 1 9.1033915951252853e-01 3.3115423131149027e+00 3.1942676624383060e+00 0 0 0
3556 2 1.5895868024621855e+00 3.9151024451036691e+00 1.7751356126838853e+00 0 1 1
613 1 1.8913033465336606e+00 3.5450753739155378e+00 2.9959398776330466e+00 0 0 -1
2897 1 1.2496920924463750e+00 4.3455303186865981e+00 2.5556214906169847e+00 1 1 1
2002 1 2.2486338956243359e+00 4.5971494580788876e+00 3.0120906012581612e+00 1 0 -1
256 1 2.3322209601676245e+00 4.3523416021958665e+00 1.9703906559125892e+00 0 0 0
1433 1 3.8226287450456446e+00 3.3189441377415418e+00 2.8272884227908968e+00 0 1 0
3153 1 2.9358285596075060e+00 3.8793223739546825e+00 2.8738984427923713e+00 1 0 1
1288 1 4.1334104629347221e+00 4.1377169805316010e+00 2.2660330522401755e+00 0 1 0
1181 1 4.5379521699655294e+00 3.0897178651851172e+00 2.0856115262772352e+00 0 0 0
3295 1 4.9673660917526190e+00 3.7318775654653864e+00 2.9276072428985578e+00 1 1 0
2213 1 5.0349378491421977e+00 4.6790206118265409e+00 2.5645642648370393e+00 0 0 1
2427 1 5.9605929418973282e+00 3.8927728348116193e+00 2.6844388838698583e+00 0 1 0
4235 2 7.5607352831698629e+00 3.3448420730922157e+00 3.2426268542223720e+00 1 0 -1
649 1 6.3911278498050583e+00 4.4163360454151590e+00 1.8187162650007349e+00 0 0 1
3508 2 6.7952272556835105e+00 3.7190350084440253e+00 2.2598880369578778e+00 0 1 1
1639 1 7.4260901689377823e+00 4.4338623634104817e+00 2.1946115400959800e+00 0 0 0
1277 1 6.9319636876272250e+00 3.8893490542012814e+00 3.0859963292605461e+00 0 0 -1
1536 1 7.6205126439305699e+00 3.3375949076296183e+00 2.4029633244342046e+00 0 0 0
3869 2 7.8383436565986990e+00 4.1057490004841091e+00 2.8318835923885652e+00 0 0 -1
533 1 8.2861564400119576e+00 3.8696866596992776e+00 1.7261697082091916e+00 0 0 0
1158 1 8.6112125223766984e+00 3.5742175963418181e+00 2.7651963123521304e+00 0 0 0
1035 1 8.4975896546951581e+00 4.6020677153789737e+00 2.6345504179943697e+00 0 0 1
1347 1 9.9203757470579390e-01 6.1497751199867121e+00 1.8843202583672036e+00 0 1 -1
1371 1 9.3109667726490510e+00 3.4164569484299658e+00 6.1956755929047658e+00 0 1 0
3095 1 7.8342347647232791e-01 5.0930282728771807e+00 1.8479850864592033e+00 1 0 0
2665 1 9.8947487022730876e+00 6.5916622076818685e+00 5.9181268705111945e-01 0 0 1
3608 2 1.2058784695337721e+00 5.8870748539830835e+00 2.6692047003536414e+00 0 0 0
119 1 1.4472547597760561e+00 5.1923208996515120e+00 3.2123473927195101e+00 0 0 1
118 1 1.7417199065025568e+00 5.2923629358514219e+00 2.1663950771015021e+00 0 0 0
99 1 2.0876891485353291e+00 6.0165955166448972e+00 3.1160002794647577e+00 0 0 0
633 1 2.1606916183513869e+00 6.3533025763318003e+00 2.0528026908419372e+00 0 0 0
3532 2 2.5439795392159117e+00 5.3705719595919055e+00 2.7799407201468740e+00 0 1 0
86 1 2.7604045913674695e+00 5.4657819477332881e+00 1.8710831832477508e+00 0 0 0
1004 1 3.2565961056364849e+00 4.8838289719882848e+00 2.6582093824888098e+00 0 0 1
1994 1 3.7251447507764612e+00 5.7375044618467550e+00 2.0238308245632819e+00 0 0 0
64 1 4.1402272150835469e+00 5.2103364171263733e+00 2.8219776414241440e+00 0 0 -1
875 1 3.0257182675740006e+00 6.2169266262809497e+00 2.6280242548080928e+00 0 1 1
157 1 4.1316965273977653e+00 6.2416374663107437e+00 2.8904370759822151e+00 0 0 1
3520 2 3.4478672471315512e+00 5.6409392172920221e+00 3.1486454158785944e+00 0 0 0
1139 1 4.3348726337911536e+00 4.9511161259841971e+00 1.6325835071808870e+00 0 0 0
3037 1 4.8889413963083221e+00 5.7689412714659900e+00 2.2203008760340213e+00 1 0 0
525 1 5.4742479630907850e+00 5.0659551475224713e+00 1.6767165141211582e+00 0 0 0
4053 2 5.8280211273967133e+00 4.6768772786648620e+00 2.4126425978976602e+00 0 0 -1
827 1 5.8879992152525595e+00 5.5666546839153570e+00 2.5919720999297793e+00 0 0 0
3575 2 6.2070345202782775e+00 6.3329843431775492e+00 3.1190007146437586e+00 0 1 0
1083 1 7.6614996026258684e+00 4.8529932193239240e+00 3.2567567524323517e+00 0 0 0
662 1 6.7416526163837869e+00 5.5885617235093221e+00 1.7919410186961455e+00 0 0 1
635 1 6.6739386203212412e+00 4.8819895465829504e+00 2.6553094647225994e+00 0 0 0
579 1 6.9338965557809189e+00 5.9110288166072005e+00 2.9969016735712888e+00 0 0 0
1628 1 7.6236476865641096e+00 5.4063068263743430e+00 2.3801448544022641e+00 0 0 0
3475 2 7.7148868850849794e+00 5.7186302351193419e+00 3.2908337971418264e+00 0 0 -1
2398 1 1.0015960372640262e+01 6.1353394982104135e+00 7.0693838938285971e+00 0 0 0
1040 1 8.4414825132288911e+00 6.0191525893521236e+00 1.8951193074265731e+00 0 0 1
589 1 3.8588285192212896e-01 4.5679584385962420e+00 3.0818673476429153e+00 0 0 0
1156 1 8.5965155088267444e+00 5.6625864528063152e+00 2.8918703896473006e+00 0 0 0
18 1 6.7529429536774521e-01 8.3421587085323008e+00 1.7181860977318653e+00 0 0 0
3347 1 8.2862415172782078e-01 7.2112124403093958e+00 1.9113222651291162e+00 1 0 0
2790 1 1.2600305059235564e+00 6.7176155695688715e+00 2.6971049158124134e+00 1 0 -1
273 1 1.4366020394876435e+00 7.7496849237383802e+00 2.9325185775329530e+00 0 0 -1
223 1 8.6777638341604870e+00 9.4389159709097115e+00 8.6473329789844264e+00 0 0 0
2139 1 1.0010415416824555e+01 8.3256992283430868e+00 6.6885123663354991e+00 0 0 0
564 1 2.2914260376133688e+00 7.2207995559357876e+00 2.9256350204061188e+00 0 0 0
770 1 1.8449519804033347e+00 7.2801137932543769e+00 1.9798727833301175e+00 0 0 1
4203 2 2.1833936104422098e+00 8.1663997741159147e+00 2.8496410226186240e+00 0 0 0
559 1 2.7268192962447442e+00 7.8807022064880510e+00 2.0880477815970524e+00 0 0 0
3827 2 2.7424184223297989e+00 6.9844115895775785e+00 2.1231409504229775e+00 0 1 1
3256 1 4.4075157298145546e+00 6.5601634420241837e+00 1.6978118121475336e+00 1 0 0
3257 1 3.2976071689773794e+00 6.5930281757452622e+00 1.5638870259789663e+00 1 0 0
3741 2 4.5635804491451610e+00 7.5559256388818721e+00 1.8278242283530739e+00 0 -1 2
2990 1 3.7061466945816504e+00 7.5112878638418303e+00 1.8924783958638454e+00 1 0 0
3855 2 3.7607355332953936e+00 6.6460545090925196e+00 2.2569979756679519e+00 0 0 -1
895 1 4.4477105428771928e+00 7.2422661032773021e+00 2.6108628648451502e+00 0 0 1
1530 1 3.3814732656577875e+00 7.1533568161503291e+00 2.8955801229724325e+00 0 0 1
3638 2 3.4764309602935115e+00 7.9733065806656125e+00 2.5899471883213532e+00 0 0 0
126 1 5.4150007602151957e+00 7.7443533853442643e+00 2.4799650672347586e+00 0 0 0
832 1 5.3471466438716337e+00 6.8656569567490902e+00 1.8463600257654635e+00 0 0 0
556 1 5.3669864609883362e+00 6.4918423127659404e+00 2.8915892781320482e+00 0 0 0
224 1 6.3530640972340029e+00 6.5183790257994252e+00 2.1430154226406284e+00 0 0 0
1602 1 6.2940543568273117e+00 7.5895416485187228e+00 1.8958101652431703e+00 0 0 0
1410 1 6.1099146463153629e+00 7.2606817509375654e+00 3.0083390488530539e+00 0 0 0
1068 1 7.4247872752025268e+00 6.3991346423759365e+00 1.9345799889216053e+00 0 0 0
1160 1 7.0937113070605582e+00 7.2337864350120942e+00 2.6342750734099782e+00 0 0 1
3953 2 7.7871307264474892e+00 7.8803578278641728e+00 2.1465583160416029e+00 0 0 -2
1438 1 7.8804725040608048e+00 6.5213754485214714e+00 2.8449392492242480e+00 0 0 0
2840 1 9.2525217830850277e+00 7.6026569551866956e+00 1.1989845821221221e+00 0 0 0
1539 1 8.3473977572382925e+00 7.0950422267349156e+00 1.7903672641121879e+00 0 0 0
1652 1 8.7080257890892305e+00 7.7258417655776439e+00 2.5701356501083796e+00 0 0 1
1388 1 8.9738677097802277e+00 6.7506548670567765e+00 2.6202359352368658e+00 0 0 1
681 1 6.9727982369056996e+00 9.4781970777695221e+00 8.9198449373997217e+00 0 0 0
3547 2 8.4944758553022712e+00 7.1240501856723775e+00 3.3165539864266527e+00 -1 1 0
2566 1 1.3267508332506330e+00 9.2475907894603040e+00 1.6978162252546019e+00 1 0 0
1928 1 3.3245905833287076e-01 3.4310413609835262e+00 6.8696375772458724e+00 1 0 0
376 1 5.4336093659285805e+00 2.0623284357830038e-01 8.9096986626280561e-01 0 1 0
742 1 9.9408096768802900e-01 8.6985812357950856e+00 2.6606252893005453e+00 0 0 1
2494 1 9.2819884134492536e+00 4.1365137590486993e+00 2.0599969557728257e+00 0 0 0
4118 2 5.9205463791970336e+00 9.4601817344393080e+00 2.0626748782623157e+00 1 1 1
136 1 1.8401979013650187e+00 8.3800699277476003e+00 2.1046619170634910e+00 0 0 0
3964 2 1.6990437929521685e+00 9.2801689577721600e+00 2.5054965485030869e+00 0 0 0
4284 2 2.7630887493728036e+00 8.6351497644775570e+00 1.8033859128790508e+00 0 0 2
2635 1 2.5408270767555696e+00 8.9646126566081445e+00 2.6128505876447350e+00 1 0 0
3840 2 9.2359486800289350e+00 4.9726582312701133e+00 2.8414281071756191e+00 0 0 0
3973 2 4.8300862799988415e+00 8.6694648248225477e+00 1.7606968030139645e+00 0 0 -1
144 1 3.5704492114801867e+00 8.5717627492270392e+00 1.9776740001662572e+00 0 0 0
644 1 4.4100340517112615e+00 8.2582857198538679e+00 2.3243856732525763e+00 0 0 1
3269 1 3.7722485917178870e+00 8.8103295413097964e+00 2.9383012302506191e+00 1 0 0
3226 1 8.2431830365321197e+00 9.3931905460325158e+00 3.9221806893442754e+00 1 0 0
3815 2 4.9413359978214180e+00 8.1257961373698482e+00 3.0377577838006076e+00 0 1 0
307 1 5.4429544489441479e+00 8.7263690629190016e+00 2.3540198027863917e+00 0 0 0
3583 2 6.2493740058627498e+00 8.0168261120934332e+00 2.6438607815333848e+00 -1 0 1
1016 1 6.3820486827514831e+00 9.0044072875478633e+00 2.6185708824393736e+00 0 0 0
1499 1 2.5913911390689699e+00 8.7972870125620856e-02 6.9498574182584534e+00 0 1 0
3463 2 2.2382329753729495e+00 9.3071724849495894e+00 9.4060460297947230e+00 0 0 0
1752 1 7.8398580659403043e+00 8.5646665458134965e+00 2.7265267461269636e+00 0 0 0
1832 1 7.0552747422644648e+00 8.2802395862560303e+00 2.0672702712506550e+00 0 0 0
1442 1 7.8275900277770685e+00 8.9858259723926164e+00 1.7516398647213522e+00 0 0 0
4279 2 7.3449229404938352e+00 9.2423876359744082e+00 2.3643468056244661e+00 1 0 0
1529 1 6.8785816219337939e+00 8.1512683647130579e+00 3.1941682423081961e+00 0 0 0