LAMMPS data file via write_data, version 12 Dec 2018, timestep = 1511111100

4320 atoms
2 atom types

0.0000000000000000e+00 1.9309999999999999e+01 xlo xhi
0.0000000000000000e+00 1.9309999999999999e+01 ylo yhi
0.0000000000000000e+00 9.6549999999999994e+00 zlo zhi

Masses

1 1
2 1

Pair Coeffs # lj/cut

1 1 1
2 0.5 0.88

Atoms # atomic

597 1 8.7615954242992433e-01 8.7532521531871754e-01 3.2691848145491981e-01 0 0 0
1218 1 1.8307668862424484e+00 6.8223347986601490e-01 9.0234005539359496e-01 0 1 0
212 1 3.3979633656769670e-01 2.0428832851470655e-01 8.9835144779601683e-01 0 0 1
237 1 9.6000466040797738e-01 1.0063425961099883e+00 1.4019861744318725e+00 0 0 0
4208 2 2.7048484708430096e+00 8.1734502845832602e-01 5.2428042130740116e-01 1 0 0
1980 1 3.5351362233704595e-02 1.2958499458902661e+00 8.9318675692473548e-01 1 0 0
967 1 1.9286157835583475e+00 1.5701599934479884e+00 3.7818945653827130e-01 0 0 0
688 1 1.6589405093003684e-01 2.3108057040871950e+00 1.3441380716241482e+00 0 0 0
465 1 9.6072545539071763e-01 1.8195549269004323e+00 7.3704519676078473e-01 0 1 1
4049 2 1.6979675123005475e+00 2.3546120174267742e+00 7.7236506247680059e-01 1 1 1
254 1 2.3490822663753175e+00 2.6547588198586163e+00 1.4181036944462484e+00 0 1 0
4292 2 3.4845831595274535e-01 2.3924444278643517e+00 4.7325852554514936e-01 1 1 0
708 1 1.3218127712601855e+00 2.6897886904281365e+00 1.4336678747804661e+00 0 0 1
657 1 8.8665261431348941e-01 3.1123050389016544e+00 4.9481417904049296e-01 0 0 1
2960 1 1.8488711384494394e+00 1.7498758001849317e+00 1.4009972543886211e+00 1 0 0
2064 1 2.4870011467244990e+00 2.5781179991335925e+00 2.9624095220488850e-01 1 0 1
3495 2 9.4270606085967001e-01 1.8884902436106537e+00 1.6617876625192762e+00 0 0 2
3599 2 2.7465470221714661e+00 3.2299696373346238e+00 8.2432640263692636e-01 0 0 0
3085 1 1.8452827945388306e+00 3.3761424791358694e+00 3.9082126460616745e-01 1 0 1
497 1 1.3738679292109097e+00 3.9961313432545551e+00 1.2616821638648319e+00 0 0 0
98 1 1.0347881646448387e-01 4.1266563394463454e+00 8.2348835203615556e-01 0 0 0
171 1 2.4407794456656382e+00 4.0521316819168396e+00 1.0445925697314531e+00 0 0 1
911 1 5.1331325164182873e-01 3.3712588444648151e+00 1.4376969162188793e+00 0 1 1
180 1 9.8868237051138497e-01 4.2081325418951341e+00 3.4917785691337661e-01 0 0 1
2948 1 2.7701022730594715e-02 5.3907229399081906e+00 1.3874215469562770e+00 1 0 0
840 1 1.1064938464095750e+00 5.0348703891164002e+00 1.1684379536384155e+00 0 1 1
896 1 2.1330944940746801e+00 5.0395943830690495e+00 7.4010525059558119e-01 0 1 1
91 1 4.3822593553590550e-01 5.0701067252190439e+00 4.0964111861196811e-01 0 0 0
3476 2 1.6711105675839963e+00 5.7021659810006255e+00 9.8609348856803691e-01 0 0 1
55 1 9.0346779905675667e-01 5.9884124426421330e+00 6.1315094033368744e-01 0 0 0
3204 1 2.6404437921526744e+00 6.0140973251628420e+00 1.0692600812371968e+00 1 0 0
2957 1 2.0329737214132355e+00 5.9588313718894241e+00 1.9054940062876735e-01 1 0 0
3799 2 2.4443655226717671e+00 5.1260970909124035e+00 1.5703854511089657e+00 0 1 0
496 1 1.3654811079009110e+00 6.8945317511420550e+00 1.1053547042425814e-01 0 0 0
666 1 1.6994502342363393e+00 6.5438621607712779e+00 1.1351699596976947e+00 0 0 1
531 1 1.7465886712132350e+00 7.5405716439376169e+00 9.0964402283622803e-01 0 0 0
2664 1 5.9663478439001694e-01 6.9253954543790437e+00 7.5319447800448158e-01 1 0 1
209 1 2.4050444231262191e+00 6.8860350290096806e+00 3.9749979772765892e-01 0 0 1
3227 1 9.7776541538364581e-01 7.2940224788445507e+00 1.6653522452878897e+00 1 0 0
60 1 2.6011230682751161e+00 8.0024595221434751e+00 2.4707377073176559e-01 0 0 0
441 1 5.5509272508731711e-01 7.6727169262000388e+00 5.4093629447877975e-02 0 0 1
726 1 1.3739925941797901e+00 5.1940238664236578e+00 8.6829408257007606e-02 0 0 0
2458 1 2.0710337991125388e-01 8.6371176436632524e+00 1.5401831289579657e+00 1 0 0
3531 2 2.5252446590129844e+00 8.1455239398939234e+00 1.1130062491287931e+00 0 0 1
828 1 9.3803500391366412e-01 8.2344917060049525e+00 9.7813377142841407e-01 0 0 0
85 1 1.8399398075036333e+00 8.5728893167438240e+00 6.6850714798404098e-01 0 0 0
641 1 1.1367344143256934e+00 9.3433591598246419e+00 1.3601121581897491e+00 0 0 1
3770 2 6.8193307867776920e-01 9.0280492303724191e+00 7.2908272407313035e-01 1 1 1
1032 1 2.6777023280559242e+00 8.9806415283594383e+00 1.2434566805980092e+00 0 0 0
4213 2 1.5803717559564867e+00 9.1995126944942740e+00 3.5152632084248278e-02 1 0 0
45 1 2.7525000813024070e+00 8.0977449756894053e+00 1.9500941799503957e+00 0 0 0
3516 2 9.6751420985885517e-01 8.2858499251764928e-01 2.3243798576729424e+00 0 0 0
140 1 1.7884294597337889e+00 6.6054425765100677e-01 1.9844890854026371e+00 0 0 0
239 1 2.8987980445437822e-01 1.5190168991213293e+00 2.0070452442796158e+00 0 0 0
479 1 6.0887892581102443e-01 1.8962681439346032e-01 1.9557979280648867e+00 0 0 0
3167 1 1.8381863303353216e+00 8.4069209294047520e-01 2.9883101184354901e+00 1 0 1
431 1 2.3865512074904149e+00 1.6327777831505972e+00 2.4832105186084554e+00 0 1 1
218 1 2.0509389701548764e-01 8.1423364483780691e-01 2.7084094164465777e+00 0 0 1
2731 1 1.1163614854332595e+00 9.4363587930992268e-02 2.8969075112992373e+00 1 1 0
135 1 1.2936048430262410e+00 1.5824269157478827e+00 2.3806418339551789e+00 0 0 1
778 1 5.8877662949225884e-01 2.6084352254296155e+00 2.2608952369115767e+00 0 1 0
2962 1 1.8222703594545973e+00 2.4860326240294928e+00 2.3476443583761761e+00 1 0 0
4299 2 1.7337233367664033e+00 1.7772252401415300e+00 3.0839433299471875e+00 1 1 1
905 1 1.1647008711942830e+00 2.4272888174381069e+00 3.1549301358125721e+00 0 1 0
131 1 1.2723625536637653e-01 1.9586176632020749e+00 3.0168791976202565e+00 0 0 1
3925 2 9.5977207812224097e-01 4.2594487494867472e+00 2.0285716966758334e+00 1 1 -1
3028 1 2.1275692441040697e+00 3.5148591078836668e+00 1.9187315764078250e+00 1 0 0
3657 2 2.8271583722487376e-01 3.4489127709599181e+00 2.3018475192448675e+00 1 1 0
162 1 1.1888218450879118e+00 3.4688492080549729e+00 2.3190668308963538e+00 0 0 0
2976 1 1.7341432821590035e+00 4.6062678422934766e+00 2.0802382234806078e+00 1 0 0
3610 2 2.1359655962283450e+00 4.0603545918440016e+00 2.6200572547601944e+00 0 0 0
3139 1 4.4561021527456479e-01 4.1769958465564807e+00 2.7828372429500057e+00 1 0 0
492 1 1.4405914668993181e+00 4.3216814156658536e+00 3.0370954296011341e+00 0 0 0
2965 1 1.8578165368751318e+00 3.3411871143299208e+00 3.0734109323152743e+00 1 0 0
3057 1 1.0291875969372577e-01 4.2991887003111318e+00 1.8438943613258445e+00 1 0 0
117 1 7.6815620508013649e-01 6.2227114070375587e+00 1.6234090264165644e+00 0 0 0
263 1 2.4714551475068429e+00 4.9387159698514536e+00 2.8091461747844577e+00 0 1 -1
671 1 1.8064731733264552e+00 5.7226671076155426e+00 1.8578124600599950e+00 0 0 1
3045 1 7.8468693902902942e-01 5.0452578878154988e+00 2.1924471379083470e+00 1 0 0
3844 2 1.5752103687785510e+00 5.2207028898368817e+00 2.6385777741654732e+00 0 0 0
3010 1 1.1402116403076010e+00 5.9626070783838863e+00 2.6709986066829448e+00 1 0 0
1058 1 2.1601981398559031e+00 5.9578197905487844e+00 2.7891679587959324e+00 0 0 0
741 1 5.4874509224280377e-01 5.1581484284025683e+00 3.2013159314580095e+00 0 0 0
2581 1 1.3153454044097049e-01 5.8930631049905609e+00 2.4799659461997678e+00 1 0 0
4198 2 1.6723889611499974e+00 6.6094327572673537e+00 2.1194744858029995e+00 1 0 1
4069 2 1.8284651490672776e-01 7.0796251547132192e+00 1.8623450421854153e+00 1 0 1
37 1 2.4935415276224218e+00 6.5425769272184686e+00 1.9730142976025091e+00 0 0 0
2956 1 1.9260094317641152e+00 7.4820939223088754e+00 1.9648446297397597e+00 1 0 0
2786 1 1.9611065996246882e-01 7.8862942025451312e+00 2.2432555576745035e+00 1 0 0
36 1 1.7781362304346733e+00 6.9864717029126462e+00 2.9040637164057679e+00 0 0 0
183 1 7.0850345422565197e-01 6.8554490678073572e+00 2.5783605908807590e+00 0 0 0
130 1 1.1939234011012785e+00 7.8127094301341815e+00 2.7739491354672108e+00 0 0 1
3632 2 1.5553099452708968e-02 6.5457458325527522e+00 3.0646464440257488e+00 0 0 1
2504 1 1.7169585415385447e+00 8.4762897273603723e+00 1.6736528431540114e+00 1 0 0
4316 2 9.6494319200948286e-01 8.1187497271503410e+00 1.8563335283173006e+00 1 0 2
193 1 2.7393333202538686e+00 9.4346422544723474e+00 3.7803672165491045e+00 0 0 1
19 1 1.8417220292234100e+00 9.4037943605285541e+00 2.2171532863671453e+00 0 0 0
3465 2 2.4901150374123784e+00 8.8616200909760074e+00 2.1344984775316025e+00 0 0 0
565 1 1.9954867903232645e+00 8.4273903167700084e+00 2.7884798879757464e+00 0 0 0
1782 1 9.9015813028392807e-01 8.8140602072456726e+00 2.3737374389149259e+00 0 0 0
4111 2 4.4860736792812095e-01 8.3392922008038735e+00 2.9856322871496470e+00 1 -1 0
57 1 2.3215548764231415e+00 1.4449821670761682e+00 4.6398285521925553e+00 0 0 0
3855 2 2.4656273550586980e+00 4.8908551850077248e-01 3.5289355235123732e+00 0 0 0
194 1 2.6251349694345758e+00 3.2293683968588005e-01 4.4040963658770593e+00 0 0 0
412 1 9.4114240811225536e-01 1.3461723809980608e+00 3.3518837368312884e+00 0 1 0
444 1 5.1712456573345611e-01 8.6579970978410559e-01 4.3330982814561931e+00 0 1 0
689 1 1.5847959970882517e+00 8.4171945193258446e-01 4.0419021851701107e+00 0 0 0
3192 1 2.3376195908753048e+00 1.4580259333259520e+00 3.6144278414428088e+00 1 0 0
4110 2 1.0333872278837712e+00 2.6935194603902402e-01 3.7210226805750621e+00 1 0 0
3096 1 7.2493207469640428e-02 1.1385031209224139e-01 3.5565876877331135e+00 1 0 0
3080 1 2.2230725304128409e+00 2.4218689217565799e+00 3.3351899082938052e+00 1 0 0
3480 2 2.4508477410402301e+00 2.1874554895026947e+00 4.2743258971732949e+00 0 0 0
4008 2 3.3109229766063336e-01 2.6294291650227262e+00 3.5078836212447597e+00 1 0 0
3490 2 1.5105906818195578e+00 2.8930857727290360e+00 3.7932075482416550e+00 0 0 0
2562 1 1.5760851068354798e+00 1.9982083450799180e+00 4.0287933008200900e+00 1 0 -1
2540 1 4.7673801898940865e-01 1.9627358542389954e+00 4.1323708860893138e+00 1 0 0
2545 1 8.5708081650600898e-01 2.9281062369324533e+00 4.3004197849495283e+00 1 0 0
700 1 2.2405873785729167e+00 3.0582010816629159e+00 4.3021836485887093e+00 0 0 0
627 1 4.2980468716679671e-01 3.7757068355454546e+00 4.7871594613666195e+00 0 0 0
536 1 7.3466745239060627e-01 3.4058035949833223e+00 3.3227538022691259e+00 0 0 0
4148 2 2.3856213757514384e+00 3.7223564651663081e+00 3.8700183533278660e+00 1 0 0
3021 1 5.5662299581670760e-01 4.3075476737407730e+00 3.8836474500444642e+00 1 0 0
114 1 1.5089993733565839e+00 3.7796437085042620e+00 3.9731908693687346e+00 0 0 0
779 1 2.2143914664182209e+00 4.5957894355916187e+00 3.7582096888688561e+00 0 0 0
4278 2 1.3566770957640590e+00 4.6756520393308918e+00 3.9501323792726368e+00 1 1 -1
986 1 2.2804163484013835e+00 4.1467377819365066e+00 4.7782559272500338e+00 0 0 0
233 1 2.6201520780247365e+00 5.5326567362788870e+00 3.6739674025822664e+00 0 0 1
487 1 2.5745770439905922e+00 6.1485673758111998e+00 4.5851169509169347e+00 0 0 0
3144 1 1.4883735810955998e+00 5.4147030192544809e+00 3.4881414750220814e+00 1 0 1
72 1 5.8147893882211799e-01 5.3123623034664362e+00 4.2433461766049350e+00 0 0 0
145 1 1.9664671965198834e+00 5.1547979341462549e+00 4.5169889697899768e+00 0 0 0
2547 1 1.4911965183540441e+00 6.0248694050991052e+00 4.2912616976133249e+00 1 0 0
44 1 6.3145862163075250e-01 6.1796977184458317e+00 3.5230950763880440e+00 0 0 0
4027 2 1.6512622910924968e+00 6.2679323184367561e+00 3.3559673022120249e+00 1 0 0
2998 1 5.0227706831130481e-01 6.3847642401911102e+00 4.5579952613222359e+00 1 0 0
934 1 1.5453328411917979e+00 7.9431402418226682e+00 4.4293871725967220e+00 0 0 1
988 1 2.0287956965274860e+00 7.0723170620201126e+00 4.5025924754356543e+00 0 0 0
590 1 1.1757608030248601e+00 7.0431495477857178e+00 3.7864639899098136e+00 0 0 0
3537 2 1.4725093210528897e+00 8.0841297372880607e+00 3.5294746062028861e+00 0 0 1
482 1 2.4229114640851948e+00 6.6431610124939304e+00 3.6399787587869810e+00 0 0 0
506 1 1.4821729549335352e-01 7.4539810872451824e+00 3.1819016784970935e+00 0 0 -1
1025 1 5.8132171402300603e-01 7.4417026921789233e+00 4.7100098028543629e+00 0 0 0
106 1 2.2446444979713389e+00 7.6888515664490740e+00 3.5633028960882127e+00 0 0 0
3486 2 2.3047405237423688e-01 7.0110979891458678e+00 3.9625196423649243e+00 0 0 0
4226 2 8.1904025597244079e-02 8.2707919786977264e+00 4.6373695537355042e+00 1 0 -1
3580 2 1.1148213862240453e+00 8.8302330084670313e+00 4.2801219474025620e+00 0 0 0
1216 1 6.5097594450371210e-01 8.0812478094191178e+00 3.9434233844159889e+00 0 0 0
1468 1 9.9666590864293625e-01 8.8572284759711337e+00 3.3937567841736351e+00 0 0 0
525 1 1.9959487839048844e+00 8.6833382899582059e+00 3.8925977487416703e+00 0 0 0
3834 2 1.9029502794949569e+00 9.5594702600064654e+00 4.1152307239388994e+00 0 0 0
3696 2 2.5868442801117442e+00 8.9488119235475558e+00 4.5378993826759295e+00 0 0 0
1731 1 2.6201052142900041e+00 8.0226761582763242e+00 4.5989724518907540e+00 0 0 0
3689 2 2.6344864391164657e+00 8.8730175669018827e+00 3.1772872271067523e+00 0 0 1
205 1 1.0895630094865948e-01 9.0102726172511396e+00 4.1970647597455288e+00 0 0 0
41 1 1.8901649559789337e+00 9.4744768435930027e+00 3.2331775157571494e+00 0 0 0
3042 1 3.8235139717477155e-02 7.6443048578027630e+00 1.2133661419605719e+00 1 0 1
2993 1 1.7726348961203123e-01 9.4537659968454886e+00 3.2173038909010319e+00 1 0 0
520 1 2.7477735843624944e+00 9.4362675565146836e-01 1.4506547505181158e+00 0 0 0
208 1 1.1227016044633933e+00 4.5793092514970315e+00 4.7976489611662219e+00 0 0 0
3972 2 2.2090855569573134e-01 3.6143179921254980e+00 6.9170278987326916e-02 1 0 0
868 1 1.2237195035764383e+00 1.1498421140359101e+00 6.0276874397615980e+00 0 1 0
2021 1 6.8600425211525018e-01 6.0059309031391439e-01 5.4199172475289306e+00 1 0 0
3825 2 3.0345643969775993e-01 1.2017294056955177e+00 6.0517131362202798e+00 0 1 1
2986 1 1.7967657501298877e+00 5.7618460292216678e-01 5.0652211131933509e+00 1 0 0
199 1 2.1970180711918603e+00 6.8516063687604178e-01 6.2736890798871867e+00 0 0 0
84 1 1.3496220580798630e+00 1.4872684200359720e+00 4.9332613709532556e+00 0 0 -1
220 1 2.4612405895235662e-01 1.5209469913392901e+00 5.1652052302641964e+00 0 0 0
3545 2 2.5022232715083970e+00 9.3910758319573451e-01 5.4405280736749173e+00 0 1 0
3 1 2.6441182064809947e+00 8.9535658505158072e-02 5.4615351952277527e+00 0 0 -1
110 1 2.0987377251521484e+00 1.6445706874816075e+00 5.6827669788658932e+00 0 0 -1
2586 1 2.5020859477188426e+00 2.4902132030093918e+00 6.2674472807762136e+00 1 0 0
282 1 7.5064035556135167e-01 2.0686574465786314e+00 5.8518159941555883e+00 0 1 -1
155 1 6.2597404919563560e-01 2.9898698056891542e+00 5.4664723296391626e+00 0 0 0
134 1 1.5667039348787521e+00 2.8660213710487641e+00 6.0459633180520900e+00 0 0 0
26 1 1.5316568178262959e+00 2.5107262073950567e+00 5.0018926966345925e+00 0 0 0
1079 1 2.3270305185004845e+00 3.0823732731808544e+00 5.4451063343122010e+00 0 0 0
4031 2 7.6931546151093433e-01 2.2126850498431030e+00 4.9391818502161371e+00 1 1 0
197 1 1.8016269239729878e+00 8.9303811109356630e+00 4.8619397925633780e+00 0 0 0
3714 2 7.7375434806513688e-01 3.3790069395937521e+00 6.2062980032207369e+00 0 0 0
2590 1 9.2036303093013050e-01 4.1677170002278308e+00 5.8215692967888897e+00 1 0 0
223 1 1.9662582777852680e+00 4.0220118897320587e+00 5.8818549090907366e+00 0 0 0
2453 1 1.4147312439995450e+00 3.5653535601205153e+00 5.0314857981322714e+00 1 0 0
3930 2 2.1310145372449658e+00 3.3931143181312020e+00 6.3987219684727830e+00 0 1 0
592 1 2.4916791345981681e+00 8.2356683907805775e-02 8.7386088045333228e+00 0 0 -1
2984 1 2.1332598413415146e-01 4.9189157402042634e+00 5.1743659127804342e+00 1 0 0
3111 1 1.7451132148530037e+00 5.0352933798704473e+00 5.5876022436315207e+00 1 0 0
3473 2 1.9107844113958756e+00 5.9751998916575069e+00 5.2010965884243907e+00 0 0 0
523 1 1.0124733738912768e+00 5.7049923255601884e+00 5.1738900168478477e+00 0 0 0
65 1 1.7659357194735248e+00 5.9598099089865135e+00 6.1491932922735542e+00 0 0 -1
175 1 8.7720690738597618e-01 5.2209858146570971e+00 6.1681275624381273e+00 0 0 0
48 1 8.3263652875278438e-01 6.2590344473610529e+00 6.3820941859726075e+00 0 0 0
3512 2 2.3511543100153789e+00 5.3609034423804625e+00 6.2894791858848063e+00 0 0 1
4231 2 2.5077406960797775e+00 4.8410783651718710e+00 5.2565834085124576e+00 1 0 0
66 1 2.6386565589143882e+00 5.6540921057250495e+00 5.5313008355626758e+00 0 0 0
3286 1 1.3086365336683103e+00 6.7206624267207413e+00 5.1996874678960339e+00 1 0 0
2966 1 2.4123241019654187e+00 6.6997848340975503e+00 5.5136762828802484e+00 1 0 0
963 1 1.6286665757372207e+00 7.0178575699132821e+00 6.1795500034916184e+00 0 0 0
104 1 9.0400045272852947e-01 7.7882473058393646e+00 6.0103910373042977e+00 0 0 0
286 1 1.8807454941386710e+00 7.7338585737448042e+00 5.3797196802784875e+00 0 0 0
2774 1 3.6822216045919504e-01 6.9274272109476414e+00 5.6193956690069404e+00 1 0 0
541 1 2.6953947311192037e+00 7.5295124959197643e+00 6.1563383271137493e+00 0 0 0
3672 2 1.3240488217661245e-01 7.5468043746757116e+00 6.3315280730667816e+00 0 0 0
690 1 2.3489667481610574e+00 8.9308951883922632e+00 9.4451734182855116e+00 0 0 0
3266 1 7.3698691086307255e-01 9.4877405846834311e+00 4.8870048956685643e+00 1 0 0
4306 2 1.3689327543897871e+00 9.5536550705274568e+00 5.5058357163851399e+00 1 0 1
3894 2 1.9653165303521447e+00 8.0183479542262042e+00 6.2133141572873800e+00 0 0 1
123 1 2.5519375485899332e+00 8.4982368483279433e+00 5.5702387756249152e+00 0 0 0
2185 1 1.4931489827974544e+00 8.6576458665325617e+00 5.8314377055792219e+00 1 0 0
735 1 2.2670219098125299e+00 9.5255659589988362e+00 5.7056385150893911e+00 0 0 0
35 1 8.3961318755886161e-01 8.4448839339465582e+00 5.1009580026323418e+00 0 0 0
3242 1 5.3584721779667854e-01 9.5719460738569300e+00 5.9135573045389647e+00 1 0 0
128 1 2.6542121000871055e-01 8.6271304349880271e+00 6.1430408901115099e+00 0 0 0
43 1 6.0491682369551580e-01 2.7844503038013796e-01 6.3994382219840160e+00 0 0 -1
3061 1 1.5819517327053565e+00 8.9449540336618605e-01 7.1163612787839075e+00 1 0 -1
266 1 7.6503196541787066e-01 5.0418643635675797e-01 7.5148078215904830e+00 0 1 0
2672 1 6.2681262334343957e-01 1.4091782574799647e+00 6.8723553893838663e+00 1 0 0
348 1 2.4813548456529491e+00 8.4498803547623358e-01 7.6955062772830933e+00 0 1 -1
654 1 2.6352268220234047e+00 1.4747516997110861e+00 6.7852653989270237e+00 0 0 0
133 1 1.7245712146598939e+00 2.3827313647281198e-01 8.0858937386553578e+00 0 0 0
3821 2 2.2131502805669916e+00 2.6068007828547762e-01 7.1519214271162213e+00 0 1 0
2623 1 8.3099359069595438e-02 1.2758648645033193e+00 7.7848665423216481e+00 1 0 0
1565 1 2.4642063410042701e+00 2.5981890226475297e+00 7.9652163339844142e+00 0 0 0
674 1 1.9721585734480291e+00 1.7420886122260975e+00 7.6012492840295609e+00 0 0 0
4149 2 7.1993292078078108e-01 2.2496130220064110e+00 6.6878810558324489e+00 1 0 0
609 1 1.5869735780575944e+00 1.9996834898913840e+00 6.6612790233296373e+00 0 0 0
3099 1 1.0354424803142497e+00 2.0969462509484140e+00 7.6061370589373674e+00 1 0 0
3105 1 8.0889465067368682e-01 2.9836183762114468e+00 7.0171121581514049e+00 1 0 0
79 1 1.8955820896562059e+00 3.0005674452000921e+00 7.1479635650440825e+00 0 0 0
3704 2 2.4899381534235272e+00 2.2655422183389442e+00 7.1501840687552543e+00 0 0 0
3048 1 2.4865194084888526e-01 2.9606938815952093e+00 7.9839597379331355e+00 1 0 -1
3035 1 1.3775674329541872e+00 3.0442875071044742e+00 8.0176009450223233e+00 1 0 -1
649 1 4.3649120267282737e-02 2.2679722077477522e+00 7.2170431876902308e+00 0 0 0
3100 1 2.3902485171047458e+00 4.0347546023912342e+00 6.9134373313616289e+00 1 0 0
645 1 1.3733740524870459e+00 3.7939572272386144e+00 6.6721751247915062e+00 0 0 0
571 1 2.7971281729053526e-01 3.8868458432964985e+00 6.6969459318435280e+00 0 0 -1
3774 2 1.6097314399614973e+00 3.7586099124333545e+00 7.4860335470780841e+00 0 0 -1
3153 1 7.5104129371209027e-01 3.7893769012862792e+00 7.6498773167524305e+00 1 0 0
125 1 1.2963861585017940e+00 4.7229290540889028e+00 7.6331835865174273e+00 0 0 0
3540 2 8.8672532647809021e-01 4.5650738900482013e+00 6.6898574297759490e+00 0 1 0
2445 1 1.7991865722251441e+00 4.8138317282479948e+00 6.6927414525890665e+00 1 0 0
553 1 2.3232178216490968e+00 3.6233681900729837e+00 7.9642124135226817e+00 0 0 -1
40 1 2.3500116289800834e+00 4.7900135451206243e+00 7.7836512141486578e+00 0 0 -1
3019 1 5.3759188625922619e-03 5.6958276354800805e+00 6.7058519168447175e+00 1 0 -1
243 1 3.2592440688155017e-01 4.8327425091502176e+00 7.3040429011480867e+00 0 0 0
3169 1 1.2674935146835344e+00 5.6175748744110301e+00 7.1056795016424639e+00 1 0 0
2602 1 2.3560350201594931e+00 5.6615228242527973e+00 7.1724322046238864e+00 1 0 0
4308 2 1.8142205720038398e+00 5.4536861965268901e+00 7.8414530419585660e+00 1 0 0
2964 1 5.3744062745760157e-01 6.3482891210166779e+00 7.3957687532382330e+00 1 0 0
602 1 2.7578813476875723e+00 2.2254147112229670e+00 5.1165475388872750e+00 0 0 0
611 1 2.5955850634909892e+00 6.5800611731399252e+00 6.6448541705193884e+00 0 0 1
3744 2 2.3995309833917990e+00 6.4708331773152992e+00 7.5206154236927958e+00 0 0 0
59 1 1.6291709997371875e+00 6.5726983191587980e+00 7.1370012082035297e+00 0 0 0
788 1 7.7616801619498532e-01 7.2543421055189619e+00 6.8646521223021448e+00 0 0 0
3247 1 1.8949058754225006e+00 7.5907682492879189e+00 6.9513583915542814e+00 1 0 -1
4102 2 1.2205007542180770e+00 7.0120251814394203e+00 7.7458443016180922e+00 1 0 -1
251 1 3.8013436080231072e-01 7.2495741119445629e+00 7.9054892679408217e+00 0 0 -1
168 1 2.0113422584621028e+00 7.0884956064547113e+00 8.0099201070685293e+00 0 0 0
3108 1 1.2071464688154376e+00 7.8383254379890603e+00 7.7533816621440206e+00 1 0 0
210 1 1.7521263292110864e-01 8.0705507329146187e+00 7.1132783698041351e+00 0 0 0
2848 1 1.5871361258607721e+00 8.6313062292436946e+00 8.6557862306423115e+00 1 0 0
3780 2 2.1419257229714606e+00 9.5341275295425714e+00 7.0455491480408270e+00 0 0 0
510 1 1.3992939532976527e+00 9.4394139270789275e+00 6.5395844288761626e+00 0 0 0
1220 1 2.2628298353480290e+00 8.1104518117850102e+00 7.8352722391038956e+00 0 0 0
494 1 2.2907726424145953e+00 8.6863739669997120e+00 6.7501199823106770e+00 0 0 0
2853 1 1.2229623674989609e+00 8.4026139211870845e+00 6.7907812192028008e+00 1 0 0
161 1 4.3654079238340704e-01 9.2000840740451988e+00 7.0073584690106410e+00 0 0 0
863 1 1.6131148200214345e+00 9.0256946302294772e+00 7.5387333701119923e+00 0 0 0
195 1 4.6833036449020406e-02 5.9039120657796769e+00 5.6282360786223808e+00 0 0 1
10 1 2.0399188051055179e+00 6.3519842743252830e-01 9.5313272922256118e+00 0 0 0
200 1 7.3385275950646867e-02 8.7983049113252303e+00 8.9355829096906074e+00 0 0 0
2730 1 1.2258742080334728e+00 1.1396460236606483e+00 8.1303952837237272e+00 1 1 -1
2837 1 1.2280567155647755e+00 2.6022245498018570e-01 9.0079625576843281e+00 1 1 0
3293 1 3.6129853138754869e-01 8.2639559944384033e-01 8.7798448574679657e+00 1 1 0
892 1 1.2355711947991219e+00 1.4457663142852983e+00 9.2039959273918726e+00 0 1 0
686 1 2.2298786467437606e+00 1.3937785876993620e+00 8.6172112088790946e+00 0 0 0
501 1 1.3989412765118858e+00 2.4422802181795569e+00 9.5658530552525658e+00 0 0 -1
945 1 2.9885414364430296e-01 1.7186087561718812e+00 9.5879515770239827e+00 0 1 0
3478 2 2.0772340133278444e+00 2.0366375362016984e+00 9.2068987891443417e+00 0 0 -2
630 1 2.7736202191109283e-01 2.8382932606871583e+00 9.3235127774748356e+00 0 0 0
2751 1 4.4146888691297115e-01 2.0015647763674296e+00 8.5221279118034943e+00 1 1 -1
3066 1 1.5606816398351266e+00 2.1881321965181915e+00 8.5064880924049184e+00 1 0 -1
4023 2 9.8727606519552957e-01 2.7707862375278056e+00 8.7667027585352280e+00 1 0 0
3136 1 2.0300753381079923e+00 3.1449448282985579e+00 8.8883137051419663e+00 1 0 0
4249 2 5.1016585884071305e-02 2.3457882833114603e+00 5.5451880945671022e+00 1 0 -1
4193 2 6.2119068836429248e-01 4.4718026120191894e+00 8.2039690840586630e+00 1 1 0
3140 1 1.9181021501140114e+00 4.3241980973243308e+00 9.3983704239830939e+00 1 0 0
3093 1 1.1018589709568349e+00 3.5429445897984393e+00 9.2109261140203174e+00 1 0 0
2944 1 1.9908821543141186e-01 3.7979046690932492e+00 8.6847727417025204e+00 1 0 -1
3178 1 1.4459891533152383e+00 4.0845672162650555e+00 8.4165028577391947e+00 1 0 0
632 1 7.5217667185462556e-01 4.6608705682253877e+00 9.0001628631300257e+00 0 0 0
3582 2 2.7218596695171251e+00 7.5256655036738227e+00 5.2955392595495345e+00 0 0 0
3133 1 1.4119680746630037e+00 6.1833509289298956e+00 8.0681193669848117e+00 1 0 0
149 1 7.8597435658697490e-01 5.3804549789930407e+00 8.2044993447943959e+00 0 0 0
229 1 1.0006170190868653e-01 5.5625396983826230e+00 9.1751502544873045e+00 0 0 0
126 1 1.6862841428882565e+00 5.0933616194415796e+00 8.6626967031719779e+00 0 0 0
143 1 2.4729849924328215e+00 5.9869416544518916e+00 8.1863581840490767e+00 0 0 0
4215 2 2.0197197966141447e+00 5.9498553700917780e+00 8.9103181249035757e+00 1 0 0
234 1 1.2010973268683762e+00 6.0846517962150282e+00 9.1174521424086095e+00 0 0 -1
11 1 4.0633231610710269e-01 6.2833144284084321e+00 8.4430290298153583e+00 0 0 -1
661 1 2.7417931481512441e+00 5.2248184700871558e+00 8.7464843509207935e+00 0 0 0
3692 2 2.3481077232655236e+00 5.1409022521051364e+00 9.4757777595299473e+00 0 0 -1
3166 1 1.1334114179544570e+00 7.0842619237110380e+00 8.7527995440428654e+00 1 0 0
3995 2 2.6978883428998168e-01 7.1846609818536766e+00 8.8083236273992274e+00 1 0 0
956 1 1.6490317266040129e+00 7.8356880487547045e+00 9.5330684347273245e+00 0 0 0
3162 1 2.6793237953190202e-01 6.6149832955385968e+00 9.4521253354671071e+00 1 0 0
366 1 2.5694501026020506e+00 7.7957798251441046e+00 8.9098667187237162e+00 0 0 0
3025 1 2.1725403847827929e+00 6.7897069166125474e+00 9.0150145310101646e+00 1 0 0
3843 2 1.6200738267496269e+00 7.7682353293325797e+00 8.6695264942991557e+00 0 0 -1
693 1 7.0017177969223376e-01 8.0147017699171919e+00 8.6928921495939644e+00 0 0 0
3394 1 6.9883781599040884e-01 8.9347476216049113e+00 8.0579313268649191e+00 1 0 0
3107 1 9.1307127328918758e-01 8.6836405433673587e+00 9.6494936502246880e+00 1 0 0
3420 1 2.0878213398532823e+00 9.6222195968545901e+00 8.2939159621263201e+00 1 0 0
3742 2 1.2739739733518953e+00 9.5437834810183446e+00 8.1990731748270829e+00 0 0 0
190 1 9.3268966182428670e-01 9.4769704500114731e+00 8.9644788130149209e+00 0 0 0
3341 1 1.4796409621175231e+00 4.6772377920163422e-03 5.8698807796334611e+00 1 1 0
546 1 9.7604011908901347e-02 9.4493269601717618e+00 9.6516227295723631e+00 0 0 -1
352 1 2.3556671853409892e+00 1.0690215890551274e+01 7.4629574817273248e-01 0 0 1
3620 2 1.5501771728907872e+00 1.0437577907262371e+01 6.5657039304472109e-01 0 0 0
405 1 7.4837937446816016e-01 1.0468703342093182e+01 1.2105289855143351e+00 0 0 1
4257 2 2.3248152226146168e-01 1.0325063600025631e+01 5.0857947226027866e-01 1 0 0
3034 1 7.9885489326431547e-01 1.1027737030270091e+01 2.9476194261347038e-01 1 0 0
789 1 1.7601329587562053e+00 1.0293745804144409e+01 1.5522062745290959e+00 0 0 0
3216 1 1.5328476333065275e+00 1.1416219106740204e+01 1.0081507138279773e+00 1 0 0
433 1 1.0154987048808191e+00 9.8264023399033249e+00 3.7440194100157842e-01 0 0 1
1953 1 8.2651260069480745e-02 1.0046530270858703e+01 4.2476746205036289e+00 1 0 0
187 1 5.7388378784578764e-01 1.1998999796893932e+01 7.5192621723278141e-01 0 0 1
1185 1 1.6871837671138328e+00 1.2442768110553033e+01 7.9819516746370922e-01 0 0 1
3852 2 2.0237409112281681e+00 1.1609743992575698e+01 2.5281700286725411e-01 0 0 0
809 1 2.6038546140352183e+00 1.1705496750129734e+01 8.9732499238983765e-01 0 0 0
940 1 2.6984077992739870e+00 1.2762780881031665e+01 9.6177224410164752e-01 0 0 1
3435 1 8.8273175223086586e-01 1.2908642653006495e+01 3.0002575526972575e-01 1 0 1
307 1 2.6258054639694078e-01 1.2939603610100122e+01 1.1515471304312701e+00 0 0 0
1225 1 2.2285723184892960e+00 1.3776101356022314e+01 1.2877951511675894e+00 0 0 0
904 1 3.6966887186645370e-01 1.4140760644152413e+01 1.1594456814145864e+00 0 0 1
3447 1 1.0776847346862655e+00 1.4061940129198543e+01 2.9701421201454109e-01 1 0 1
629 1 1.8782656876963277e+00 1.3360447492101260e+01 3.4701820124156368e-01 0 0 1
2729 1 1.1819120008432422e+00 1.3489444939626051e+01 1.2081554857988315e+00 1 0 0
1214 1 2.0978175616403090e+00 1.4399761796472587e+01 3.9084350788949151e-01 0 0 0
247 1 2.7000616072263064e+00 1.4367224195327044e+01 3.9863569101707790e+00 0 0 0
923 1 1.4405251314257328e+00 1.5991908076066307e+01 1.3792636147218781e-01 0 0 1
291 1 1.4203738572197955e+00 1.4519647709809856e+01 1.1721824982144169e+00 0 0 0
3291 1 2.5865200835564148e+00 1.4844439067649329e+01 1.4338137148916241e+00 1 0 0
406 1 6.3601100338663841e-01 1.4986087389716962e+01 6.3928881045746322e-01 0 0 1
781 1 1.2947564085461867e+00 1.5523367750890522e+01 1.3090250673667152e+00 0 0 0
3664 2 1.5177781430944026e+00 1.5017379208835177e+01 4.6592182590585762e-01 0 0 0
300 1 2.2110181856591176e+00 1.5545917923106050e+01 7.8303506380332211e-01 0 0 0
4174 2 5.1516094186421901e-01 1.4944001551248375e+01 1.5338824343966557e+00 1 0 1
3354 1 6.0082620357122918e-01 1.6004437946939735e+01 6.6141663134902362e-01 1 0 0
946 1 2.4300412576205743e+00 1.6473221966391105e+01 1.1814026813963346e-01 0 0 0
1193 1 1.7337985685601212e+00 1.6464391233645749e+01 1.0301785951570792e+00 0 0 0
685 1 9.7121529806790263e-01 1.7114846014330073e+01 2.6011454644872761e-01 0 0 1
3241 1 1.9481099304479381e+00 1.7386498889779926e+01 4.8694579144904387e-01 1 0 0
321 1 8.1218633269540075e-01 1.6781865778823786e+01 1.3714639502984247e+00 0 0 0
2756 1 1.6384240108753587e-01 1.7655443394506829e+01 8.8684733286850614e-01 1 0 0
246 1 1.7470159832173091e+00 1.7277966999911772e+01 1.5483876959010698e+00 0 0 0
272 1 2.7465927806424624e+00 1.6721639236067237e+01 1.4154158394130325e+00 0 0 0
425 1 1.3629070320192596e+00 1.8917486518461182e+01 2.5926781491299306e-01 0 0 0
3202 1 3.7719736574508983e-01 1.8339121610224506e+01 4.5063140115626679e+00 1 0 0
3547 2 6.1785899580445125e-01 1.8667604978741618e+01 6.1548602732354785e-01 0 0 -1
3785 2 1.9220321387818711e+00 1.8312882533959471e+01 4.6541260525563749e-01 0 0 0
3008 1 1.1870163467282928e+00 1.8010010527309934e+01 8.3895590653734997e-01 1 -1 0
2797 1 3.2863509982359196e-01 1.8608497536111734e+01 1.4801796988410840e+00 1 0 0
93 1 2.0634608373825656e+00 1.8226970131592648e+01 1.3969732971934179e+00 0 -1 0