LAMMPS data file via write_data, version 12 Dec 2018, timestep = 202080

4320 atoms
2 atom types

0.0000000000000000e+00 1.9309999999999999e+01 xlo xhi
0.0000000000000000e+00 1.9309999999999999e+01 ylo yhi
0.0000000000000000e+00 9.6549999999999994e+00 zlo zhi
8.1295099999999962e+00 0.0000000000000000e+00 0.0000000000000000e+00 xy xz yz

Masses

1 1
2 1

Pair Coeffs # lj/cut

1 1 1
2 0.5 0.88

Atoms # atomic

3870 2 1.0447152392237879e+01 4.7403876922124084e+00 1.0155469987439329e+00 0 -1 0
701 1 8.0420386769320888e+00 1.7702820209907577e+00 2.7264604375358670e+00 0 0 0
2399 1 5.2569295934576505e+00 8.4549563827398604e+00 9.9406234226127832e-01 0 0 0
3119 1 7.9334575696656531e+00 2.9234018279607970e+00 8.0735591176598760e+00 0 0 0
1 1 9.0695947501898182e+00 4.7943699205163135e+00 1.2120230513964514e+00 0 0 0
1737 1 7.7003485766994331e+00 7.0838757237371368e+00 4.6394197284509042e+00 0 0 0
3767 2 1.1892065248923300e+01 6.8727242510725421e+00 3.8546874228620243e-01 0 0 2
2991 1 1.0945284507202535e+01 7.1852538113525499e+00 7.7492389962170494e+00 0 0 -1
1954 1 5.6254782695596051e+00 2.0671409948078607e-02 5.1259862102163973e+00 0 0 0
3379 1 1.1850362166288171e+01 6.5332189971142407e+00 2.0295451459774818e+00 0 0 0
1585 1 1.0621311727425173e+01 5.2262219926667015e+00 5.0912814212612201e+00 0 0 0
1197 1 1.1948232166913280e+01 9.2077472475213682e+00 5.1903402627300060e-02 0 -1 1
3422 1 5.0331226893646752e-01 7.8809083001106739e-01 1.7823190580734130e+00 1 1 0
1493 1 9.8960509666239926e-01 1.6711080320493101e+00 1.2690215348678651e+00 0 1 1
4074 2 1.1687931439630586e+00 9.1076042275382618e-01 9.7552057519135249e-01 0 1 1
3203 1 1.5378677907457390e+00 1.3526040654593037e+00 3.3263864831438722e-01 1 0 0
1264 1 2.1868104341864836e+00 1.6263274201779707e+00 1.1723382275455172e+00 0 1 0
756 1 7.9714291889452253e+00 7.7355152749936931e+00 5.4313310551381884e+00 0 0 1
3758 2 2.3467910497059359e+00 8.2133526318435890e-01 1.8527272295333292e+00 0 0 1
663 1 2.9062732520382610e+00 7.6259337163893481e-01 1.1441240839755000e+00 0 0 0
963 1 2.7534642497531290e+00 1.3896287984338533e+00 2.9449147587850355e-01 0 1 1
4222 2 2.6551029778848232e+00 5.5207020930584383e-01 1.9378570500987996e-01 1 0 -1
899 1 8.4778641118753519e+00 8.2285851140405661e+00 3.5020920727303153e+00 0 0 0
1252 1 3.5374058318740720e+00 6.7771575144579010e-01 2.3685584103789037e-01 0 1 1
2154 1 3.8229250766171479e+00 9.4035373974674119e-01 1.4589281220785082e+00 0 0 1
4078 2 4.2424583917590644e+00 1.2830707500450753e+00 3.7592073907895041e-01 0 1 0
1783 1 5.5076730964675633e+00 4.1984967133431383e-01 9.9911047350613280e-01 0 1 0
1177 1 4.9640045037360867e+00 1.3625355848281719e+00 8.0642314812489790e-01 0 0 1
2805 1 4.3617224285317899e+00 4.2161521564522431e-01 6.3273732167005958e-01 1 1 1
4061 2 6.9845277712139406e+00 4.4825166954900597e+00 6.6459243554110499e+00 0 1 1
4319 2 6.2105365549465450e+00 2.6999285667274981e+00 6.9657664699386412e+00 1 0 0
2237 1 1.0056881518973388e+01 7.5908773710699080e+00 2.9040707460260031e+00 0 -1 0
3415 1 8.6456467489556257e+00 7.0283078808598951e+00 5.8401717731272624e+00 0 1 0
1861 1 8.6607023659931635e+00 8.8690477293776944e+00 6.6020880576931669e+00 0 0 0
1707 1 6.9897857377271908e+00 5.8479126043058880e+00 8.1366902248471025e+00 0 0 -1
3889 2 6.7955920853876890e+00 7.8423984012346502e+00 1.6063260201571734e+00 0 -1 1
2909 1 1.2459692489183429e+00 1.3986164006857171e-01 1.3612346339619279e+00 1 1 2
2059 1 8.2477768394942004e+00 1.9789717088505914e+00 3.7337513665346842e+00 0 0 0
2730 1 9.3800058974918894e+00 2.9494835129189703e+00 9.4901170181468864e+00 0 0 0
3611 2 7.3123041850546677e+00 1.9962826596644510e+00 6.4322410089533388e+00 0 0 -1
3803 2 8.5117312460855317e+00 4.5072877080808421e-01 7.3566846671908017e+00 0 2 0
128 1 9.5380560086290185e+00 3.8826670163595542e+00 9.0298876598726352e+00 -1 0 -1
1621 1 8.8659189050608163e+00 4.9452282287766082e-02 6.6476941134652794e+00 0 0 0
1601 1 4.6411894546990569e+00 9.5851566908801971e+00 8.9751536111945160e+00 0 0 0
2721 1 1.2592390657183888e+01 7.6696479958944872e+00 2.4849093660523507e+00 0 0 0
2161 1 1.1330623952409479e+01 6.1538787835111970e+00 7.6944153091498455e+00 0 0 0
3793 2 1.0882530678906923e+01 3.7002639740227159e+00 6.8532612370528039e+00 0 1 -1
1894 1 1.3043163208747188e+01 8.1879465075259699e+00 3.3108930958816822e+00 0 0 1
1704 1 2.2048450816969227e+00 3.1622885041314674e+00 1.0349786338922988e-01 0 0 1
3626 2 2.1584322386206516e+00 1.9813732566279991e+00 3.5097234933149762e-01 0 0 0
100 1 2.0087504631131852e+00 3.3133808726140552e+00 1.1813919076822619e+00 0 0 0
951 1 1.6180458817401189e+00 2.4308502155060681e+00 8.7412633086357683e-01 0 1 1
1055 1 3.5481316960796718e+00 1.7342652308085975e+00 8.1139085108597608e-01 0 0 0
3784 2 3.0990002972136801e+00 1.5318153388675457e+00 1.5595532482684100e+00 0 0 -1
629 1 2.8847518144154725e+00 2.5625281675377800e+00 6.4031896392794962e-01 0 0 0
1563 1 3.7909389423323958e+00 2.7281747796700477e+00 1.3371099883735957e+00 0 0 0
576 1 4.4915529964718877e+00 3.0870584987507748e+00 5.3969927361830050e-01 0 0 0
1632 1 4.3944936544921198e+00 1.8435044107249421e+00 1.6853924576341763e+00 0 0 0
3737 2 4.3767610452223753e+00 2.2760156536475527e+00 9.1810216141422984e-01 1 1 0
3175 1 5.3141968243982651e+00 2.3718323911821577e+00 7.1729370269511961e-01 1 0 1
1395 1 4.8376069646036939e+00 2.7426040691338240e+00 1.6524567425058398e+00 0 1 1
3814 2 5.1370464705171255e+00 2.8000019803845220e+00 2.8695381336998782e-02 -1 0 2
1104 1 4.6180996984742935e+00 2.0281782293368815e+00 5.3655017441685972e-02 0 0 0
1604 1 9.3657001181350417e+00 1.7826797076347916e+00 3.1699873183390510e+00 0 0 0
4201 2 9.0872379403607724e+00 7.7834263844415705e+00 1.9125232054533927e+00 0 -1 0
2029 1 7.0633987392307063e+00 1.8608976312826160e+00 5.5846889783083427e+00 0 0 0
2622 1 9.0321593321963665e+00 8.4361481672940886e-02 5.5891557787070321e+00 0 0 -1
723 1 7.3342522872627729e+00 2.1396246104129496e-01 5.9288863873784114e+00 0 0 0
2275 1 9.5815064122886842e+00 9.3341133824896083e+00 5.7128749666933365e-01 0 0 1
1793 1 9.6009164131906921e+00 7.2749789644782838e+00 5.9222007431909667e+00 0 0 0
3961 2 8.5247155006648754e+00 1.7832629934136592e+00 6.2694337674969782e+00 0 0 0
3716 2 8.0963982571465625e+00 1.7487021291286786e+00 1.8591960060980717e+00 0 0 0
3712 2 7.7550449060738273e+00 9.1113687247974049e+00 7.9427397770630366e+00 0 0 0
2178 1 7.6520149606471239e+00 1.6640593795948866e-01 4.8029522956701953e-01 0 0 1
3938 2 9.9488635732790893e+00 4.6128666567114145e+00 4.9902534201495801e+00 0 0 0
2279 1 1.2096714676737989e+01 9.4702344632945277e+00 8.6800994952799897e+00 0 0 0
4246 2 9.9630260147665304e+00 7.9339276011332629e+00 7.7335657478584174e+00 0 0 -1
3915 2 1.7883949993489818e+00 3.8654388164355571e+00 5.0837763696756832e-01 0 1 1
1144 1 1.4090365417727786e+00 3.2240986266414842e+00 8.9087172987758390e+00 0 0 0
1214 1 2.6686958790992579e+00 4.0432831268229066e+00 6.5714768163065573e-01 0 0 1
910 1 2.1514732363537270e+00 4.2382363046485318e+00 1.6832994938171690e+00 0 1 0
810 1 3.4558180115107833e+00 3.4468719468831086e+00 5.4519031487826330e-01 0 1 1
3493 2 3.4135973690173835e+00 5.5827781273949366e+00 5.0963286922948950e-02 0 0 -1
981 1 4.3225226820972331e+00 4.2590938288615510e+00 4.7069743546564291e-01 0 1 0
3546 2 3.4493885979543899e+00 4.3086760723761888e+00 3.6292484876046738e-01 0 0 1
2081 1 4.3322988057060092e+00 3.6502394429654865e+00 1.3784680824530011e+00 0 0 0
2050 1 2.9878166218751190e+00 3.5015262368513431e+00 1.5302985026536631e+00 0 0 0
1503 1 6.1412717053102419e+00 7.4062846518781909e+00 9.0200636859265835e+00 0 0 -1
639 1 5.4242539467886237e+00 3.5067262556979633e+00 9.1503240909074091e-01 0 0 0
1153 1 5.9734937659459844e+00 4.3120755008553466e+00 1.3934895365733577e+00 0 0 0
1946 1 5.3045661512974966e+00 4.4892475167447108e+00 5.1348031688298001e-01 0 1 0
45 1 6.8494056042693323e+00 3.5656768127623368e+00 6.8614541173998473e+00 0 0 -1
3844 2 8.3341138994149748e+00 4.3988919073691468e+00 3.1263857126825902e+00 0 0 0
2414 1 6.4165791671031558e+00 1.3783393194893450e+00 1.6805225203845640e+00 0 1 1
140 1 6.1267833146371125e+00 3.8702073853665686e+00 3.9923203829383138e+00 0 0 1
1216 1 8.3594577094997717e+00 9.2510002865829009e+00 2.9124034513422421e+00 0 0 0
2036 1 8.5721165348011539e+00 3.7800762199907227e+00 9.3770680116719394e+00 0 0 -1
1691 1 7.1215825105924404e+00 1.1316030482448369e+00 9.7960479198132477e-01 0 0 1
3966 2 8.4826950901605631e+00 5.3399449330140385e+00 1.5567817350920230e+00 0 -1 0
2198 1 9.7143668849753535e+00 4.8750501469848064e+00 8.6540433425148020e+00 0 0 0
2630 1 9.7559458229679432e+00 6.6881781701355854e+00 3.1333543132596811e+00 0 0 0
2579 1 1.1321871238983610e+01 5.7359649600215077e+00 4.5001812526545750e+00 0 0 0
749 1 1.0350867510141594e+01 6.3643415695552514e+00 8.0204806735236609e+00 0 0 0
116 1 1.0857692769189178e+01 4.1400556853225190e+00 5.0799077600591840e+00 -1 0 -1
808 1 1.1234178137210197e+01 7.4145072843524833e+00 8.6942741435934128e+00 0 0 0
1743 1 9.1910900547477805e+00 2.3586805531332797e+00 1.7492964358686811e+00 0 0 1
3305 1 1.1095193176810017e+01 8.2657684170424766e+00 5.2202901329851557e+00 0 0 0
1132 1 1.2403003064205759e+01 6.8278498338977887e+00 5.3143544238056775e+00 0 0 0
146 1 3.5191960280957493e+00 6.5258641456471072e+00 1.3244075113880602e-01 0 0 0
655 1 4.0940856577268008e+00 6.2519376176346801e+00 9.5084142054615151e-01 0 0 0
206 1 2.7771948763982293e+00 4.8918859218889992e+00 2.2781159102909326e-01 0 0 1
2653 1 4.8858258140958259e+00 4.5047028156632836e+00 1.4862874981501208e+00 0 0 1
537 1 3.7778226188242741e+00 5.1025215891166873e+00 6.7111092457924060e-01 0 0 0
80 1 4.7925137511224101e+00 5.3506836957750901e+00 8.8539145458739543e-01 0 0 -1
4073 2 4.8480561950058600e+00 5.0241533180066957e+00 2.1382986688792771e+00 0 0 0
3679 2 4.4698715486902820e+00 5.0066556291257491e+00 2.0700415083366502e-01 0 1 2
1626 1 6.1611871482047125e+00 6.3955910028976124e+00 4.6173724352760265e-02 0 0 0
2357 1 6.0260701828428314e+00 5.5607752925540055e+00 6.1713786986938879e-01 0 0 0
2072 1 7.3438885735381376e+00 6.3038762038409324e+00 1.9935200594686362e+00 0 0 0
2497 1 5.2101781372576852e+00 5.3871723992446592e+00 9.5109273498509168e+00 0 0 -1
1215 1 5.4949278380149229e+00 5.3491336501964808e+00 1.6520190566136865e+00 0 0 1
2665 1 6.8910058526842946e+00 6.2152867630403739e+00 6.9846145279542804e-01 0 0 1
3455 1 8.8092433050987200e+00 5.4592750631819325e+00 9.1461184094478725e+00 0 0 0
4019 2 7.6546144959676772e+00 7.7176858783093376e+00 7.8414292299340644e+00 0 0 1
2112 1 6.9813970609254969e+00 2.0277077840544213e+00 2.4741950931084387e+00 0 0 0
3338 1 8.7435636908207250e+00 7.1472282793549216e+00 4.6897125898178098e+00 0 0 0
3548 2 7.9185672226131709e+00 1.7079976624650848e+00 5.2565656684352042e+00 0 1 0
3694 2 5.1406863450706961e+00 8.2556386879283156e-02 3.5545626518626197e+00 0 1 1
2555 1 9.1467790433788458e+00 4.4431756442857537e+00 2.8647994018310490e+00 0 0 0
223 1 9.0555758067186503e+00 9.2252923152147908e+00 8.5974627511771917e+00 0 0 0
1724 1 8.6827604728039827e+00 5.5910388325427203e+00 5.8593203581074271e-01 0 0 1
1991 1 5.2962696646130709e+00 3.4628303847792441e-01 8.8792457858976306e+00 0 0 -1
4013 2 9.6104676877340545e+00 5.4054935401585311e+00 9.3809015083961391e+00 0 0 -1
2111 1 9.6195625431986915e+00 5.5691883316547361e+00 3.0510693571224046e+00 0 0 0
3775 2 8.5560998617789235e+00 1.5247388798890920e+00 7.5171790705340831e+00 0 0 1
3738 2 1.0426855225141068e+01 2.8027241190740995e+00 5.8259777323436408e+00 0 0 -2
985 1 3.0330571653265368e+00 5.9027186652592842e+00 7.7621366888583254e-01 0 0 1
270 1 3.5703023132084999e+00 7.6978344624976121e+00 7.6073172984827886e-01 0 0 0
1191 1 4.7402684404670996e+00 7.6993507205150724e+00 9.2339714011287484e+00 0 0 -1
4287 2 4.2172957957070665e+00 4.9867142723372764e+00 1.3863992206348783e+00 0 0 0
1694 1 3.5882012150965910e+00 7.4628365248999167e+00 9.2817106927596651e+00 0 0 0
1963 1 4.7634594569115274e+00 8.4970617518706195e+00 8.4180778540192218e+00 0 0 0
3539 2 4.9664272886442271e+00 6.2674654489484789e+00 9.3925820445377450e+00 0 0 0
1101 1 5.1368227044204602e+00 6.2340620688481208e+00 5.6671392187490566e-01 0 0 1
1364 1 5.3263417101670854e+00 7.0259244284935001e+00 1.1195178417826414e-02 0 0 0
1222 1 4.3331192890266035e+00 7.1172504998303809e+00 4.0874803936356086e-01 0 0 0
1980 1 5.4411755660728041e+00 7.3476960006181962e+00 1.0812418991887567e+00 0 0 0
3871 2 4.5029436154603584e+00 8.6361162564863800e+00 9.2571260362968761e+00 0 0 -1
2416 1 7.5409052919753599e+00 6.8619558911887912e+00 1.1277776244736555e+00 0 0 1
551 1 5.8981249458439331e+00 6.3971919806420328e+00 1.2371515076514181e+00 0 0 0
4230 2 8.4405271592885853e+00 7.4021781916098890e+00 8.3063166190827531e-01 1 0 0
1784 1 7.6412061506298077e+00 8.3097315292940621e+00 8.9907316393516385e+00 0 0 -1
2536 1 7.6292220379577884e+00 1.2469321364996335e+00 6.2054664394048169e+00 0 0 -1
2954 1 9.9467901052684553e+00 7.6994405409421116e+00 2.6310174265368397e-01 0 0 0
1230 1 6.1060132914754988e+00 5.3356241589607372e+00 3.2453517224603168e+00 0 0 1
3653 2 1.2201159994575534e+01 7.9494782316497368e+00 6.1382440723179856e+00 -1 0 0
3470 2 1.1898789335884718e+01 5.5479226228364649e+00 3.7991387920882980e-01 -1 0 -1
2881 1 1.2479703107304712e+01 7.4657967389449027e+00 5.7263473124992126e-01 0 0 1
998 1 4.3288986687497193e+00 8.8545656276660463e+00 1.2723918693459439e+00 0 0 1
2791 1 7.9785204599974859e+00 1.8975252637160895e+00 6.9151084328624286e+00 0 1 -1
645 1 3.4789979953791343e+00 7.5453093840956038e+00 1.8455881349116301e+00 0 0 1
203 1 4.2737286867150051e+00 8.2854470326294649e+00 3.3817432868426756e-01 0 0 1
3103 1 6.4452321895489897e+00 2.2876339275655773e+00 8.1340590522014136e+00 0 0 -1
4221 2 7.9956898637526859e+00 3.0843029085587585e+00 6.1075156550667860e+00 0 1 0
2263 1 6.5897884052662077e+00 8.4837147558367025e+00 9.2805280864994055e-01 0 0 0
1120 1 4.1797690706249115e+00 8.3288497362280971e+00 2.1839959819202699e+00 0 0 0
3064 1 4.5325990882142264e+00 7.7600972615198032e+00 1.2881089938513974e+00 1 0 0
204 1 6.6519629587662745e+00 7.8736486583250116e+00 2.6141768282559092e+00 0 0 0
1037 1 6.1157857571718344e+00 6.6752315325564404e-01 7.0390965724508643e+00 0 0 -1
3629 2 5.5617709842385317e+00 8.0258425572918988e+00 9.0841761246773185e+00 0 0 -1
1613 1 5.9050084063368580e+00 7.9812078668602240e+00 1.9540365207381569e-01 0 0 1
2200 1 8.2008460623069226e+00 5.0959245175683430e+00 7.7178948384053410e+00 0 0 0
738 1 9.2262340946159522e+00 8.5135338120902784e+00 2.6411282934621756e+00 0 0 0
2009 1 1.3228789652487322e+01 8.8475209687731358e+00 1.3361387189517206e+00 0 0 0
1908 1 8.1658271740540478e+00 8.1585899695929758e+00 3.4426858624384271e-01 0 0 0
2908 1 6.4404830440042629e+00 1.3480193580042641e+00 3.1802217200571095e+00 0 1 1
2076 1 1.1635105690088178e+01 6.2747440068396259e+00 8.7527486202752041e+00 0 0 -1
523 1 1.0508180574446731e+01 3.2409179000275290e+00 3.4374723212712426e+00 -1 0 0
3927 2 6.0982075989311513e+00 2.1163191189974673e+00 1.9958178150075356e-01 -1 1 1
4167 2 7.1698451434572803e+00 2.4656757350719016e+00 4.9094286323797647e+00 0 1 0
2173 1 1.1431912893699124e+01 8.3239151431826599e+00 1.4838212403434246e+00 0 0 0
4129 2 1.3135800570590173e+00 5.7195466292626995e-01 4.7624383398959660e+00 0 0 0
1997 1 5.9508294962230854e+00 5.6926262756681034e-01 9.6284985591632495e+00 0 0 -1
242 1 8.7367917958744297e+00 8.3522411132036982e+00 9.0922927180719473e+00 -1 0 0
2041 1 1.0072456583047197e+01 8.0811179850860313e+00 5.3569547607305426e+00 0 0 0
1656 1 1.1774240764107997e+01 9.0820734732164219e+00 7.6602505491019208e+00 0 0 0
667 1 5.1297254004624504e+00 1.3698935593184486e-01 6.9988195843580785e+00 0 0 0
1305 1 2.3459662843168605e+00 1.7775403911798582e-01 3.5561248663293727e+00 0 1 0
1171 1 1.1059558918585093e+01 7.3462453061024391e+00 2.0254137299157398e+00 0 0 0
2 1 1.1413626906087089e+01 6.4703934435923971e+00 3.5213396548254283e+00 -1 0 0
2931 1 1.1126059750813937e+01 4.1461340059022067e+00 3.3181021835437465e+00 0 1 0
3329 1 1.2730180637393680e+01 9.3052913437292428e+00 6.3046924012783725e+00 0 0 0
3430 1 9.8622413833966538e-01 1.6807925266286143e+00 2.3688051492813988e+00 1 1 1
2478 1 6.8816661628796298e+00 9.9337866724105370e-02 3.5485461611466791e+00 0 1 1
416 1 1.0825636677381274e+00 6.7933967894698100e-01 2.7003124872603115e+00 0 1 1
1875 1 1.5296625553305425e+00 9.9965477258010627e-01 1.7810382372699085e+00 0 1 1
3905 2 1.7580654041696751e+00 1.3823218329163343e+00 2.7062828175073768e+00 1 1 0
2405 1 2.4333118422039672e+00 1.6244551938280736e+00 2.2479917280737283e+00 0 1 0
27 1 2.1265538792167553e+00 5.9048782989010562e-01 2.6661450185528812e+00 0 1 0
2689 1 2.5230492670133118e+00 1.3243611719139843e+00 3.2729304020111596e+00 1 0 0
3459 2 3.1952674911683747e+00 1.5611727505929747e+00 2.7588902177169135e+00 0 0 0
1032 1 3.1360289593021449e+00 8.4640492267346434e-01 2.2775618566427718e+00 0 0 0
820 1 4.0829114000808016e+00 1.3535332627112118e+00 2.5885024593842880e+00 0 1 0
2197 1 1.1359225590406609e+01 8.3171029757210757e+00 3.1636162499107195e-01 0 0 2
1863 1 4.7816857903394734e+00 9.2376622962638344e-01 1.8480540239925349e+00 0 1 0
1231 1 5.1335599673529950e+00 3.6173024800547499e-01 2.6512681347038378e+00 0 0 1
3639 2 4.9430995405337876e+00 1.2687064552338339e+00 2.9168338049293050e+00 0 0 1
2256 1 7.1104642361348773e+00 6.2576090169020171e+00 7.0529659595878185e+00 0 0 0
720 1 7.7029676669395730e+00 4.2112345974905283e+00 7.0357409136311198e+00 0 0 0
279 1 6.3145733794505130e+00 3.2580462050596832e+00 7.6939030421534298e+00 0 0 0
3760 2 7.9106255824930436e+00 5.9257406212132295e+00 2.7730419799671262e+00 0 0 0
1188 1 6.5565272033582360e+00 4.0786025231647510e-01 8.7949576364181752e+00 0 0 0
2911 1 6.3204395480859983e+00 2.5024788788541028e+00 1.0010048073872775e+00 0 1 1
3606 2 8.4154885026800805e+00 4.6259523014889075e+00 6.7446621832539488e+00 0 0 -1
1590 1 6.9321616020080725e+00 7.4124229668220227e+00 7.3410036546115043e+00 0 0 0
2680 1 7.8218596114229797e+00 9.6617283136615240e-01 7.4143404716799761e+00 0 0 0
1587 1 9.4566442955716106e+00 6.1074150971890040e+00 1.5294892229503967e-01 0 0 1
3517 2 1.1534762484689830e+01 7.3769225304864987e+00 3.7040691594765258e+00 -1 -1 0
1695 1 1.0372427177046621e+01 8.5385942837947226e+00 8.0514645835881482e-01 0 0 1
2519 1 9.8078901384170614e+00 7.3125143492517966e+00 4.7426638729389721e+00 0 -1 0
2592 1 1.1747255743600716e+01 5.7609177203563471e+00 1.2492514749175365e+00 0 0 0
234 1 1.1111796663083698e+01 5.7066145629687943e+00 2.1893511015137488e+00 -1 0 1
2239 1 8.7903568116875039e+00 1.9076354872193260e-01 8.8980513859504509e+00 0 0 0
2618 1 1.0909602016130197e+01 3.3620644904077492e+00 2.3935841652667995e+00 0 0 0
4097 2 1.6303428493978380e+00 3.1888913857051984e+00 2.8461157593600639e+00 0 0 1
527 1 1.6542847279971764e+00 2.2796572654406537e+00 1.8825972315127371e+00 0 0 0
427 1 2.6160216736588424e+00 2.4885269369568412e+00 1.6539675938895360e+00 0 1 0
699 1 1.8854557610104221e+00 2.3321572596223428e+00 2.8360386194742726e+00 0 0 1
1026 1 2.3964930437147984e+00 3.2309096412022726e+00 2.3399785040765915e+00 0 0 0
354 1 3.4256321835547663e+00 2.0884466070758916e+00 2.1078803775438715e+00 0 1 0
4141 2 4.1090402639347134e+00 2.5895188178322135e+00 2.1764365200816345e+00 0 2 0
2060 1 2.8901734698653283e+00 2.3030143443069164e+00 2.9932239274433501e+00 0 0 0
753 1 3.4497431518546766e+00 3.0962284346961910e+00 2.3208731951255306e+00 0 0 1
2422 1 3.9774845557763507e+00 2.3668347311166307e+00 3.0062129472439172e+00 0 1 1
1250 1 5.4930071855251992e+00 1.9239047290117479e+00 1.6694956607336888e+00 0 1 0
706 1 4.8655711201666110e+00 2.1296132766281692e+00 2.5975082372803580e+00 0 0 0
164 1 1.0128796941096535e+01 9.0286875223695340e+00 2.3225366019579425e+00 0 0 1
3921 2 5.2431512656988186e+00 2.9264001746400230e+00 2.5264987319493368e+00 0 1 -1
3124 1 5.9083419782848550e+00 2.9394165680265956e+00 1.8161612279047958e+00 0 0 1
3991 2 7.2984967186784964e+00 6.4006004296864987e+00 4.2600662604803530e+00 0 1 1
3029 1 7.2062556572577492e+00 3.6513843423647723e+00 3.5448459061145505e+00 0 0 0
2196 1 6.5862151090026249e+00 2.1908599904806643e+00 4.3516670842439513e+00 0 0 1
16 1 5.7120221998236582e+00 3.1758508262283747e-01 6.0989535236082988e+00 0 0 0
3969 2 7.5759774113353080e+00 2.5983279171654883e+00 8.7879676128771305e+00 0 0 0
1094 1 7.4575650909295694e+00 2.8515698298792849e+00 8.0030754939548021e-01 0 0 0
1844 1 8.7107611051690377e+00 6.2419645954550989e+00 3.1848144993558405e+00 0 0 1
2739 1 7.2904579060764183e+00 1.0759248718009029e+00 2.0752008096268888e+00 0 0 1
2723 1 8.4224075214306708e+00 2.7971181583312683e+00 9.0354287278212215e+00 0 0 0
1442 1 8.6234680866217843e+00 9.2467070794224160e+00 8.4425618928184110e-01 0 0 0
3734 2 1.0465409515504813e+01 7.3328766570937587e+00 9.2763284781346140e+00 -1 -1 0
1829 1 1.1206129473840489e+01 9.2828718135129922e+00 5.5439471763659212e+00 0 0 0
3756 2 1.3171521999585543e+01 9.1444011897623785e+00 3.7032893958790889e+00 0 0 1
4159 2 3.1742284755103412e+00 7.3854824502256724e+00 5.4324484987462638e+00 0 0 0
3295 1 1.8775520378855795e+00 4.1151209329014442e+00 2.7504422535413391e+00 1 1 0
2213 1 2.3045598553849129e+00 5.1230178014828791e+00 2.2653535239205311e+00 0 0 1
2427 1 2.9451999412904142e+00 4.1011715286284653e+00 2.4283079950944364e+00 0 1 0
4235 2 4.1542483979672920e+00 3.2925604761151441e+00 3.3233683017540305e+00 1 0 -1
649 1 3.5038309409296424e+00 4.3434732950772981e+00 1.3516427189475875e+00 0 0 1
3508 2 3.7734419451323489e+00 3.8558192025387465e+00 2.0311991443200865e+00 0 1 1
1639 1 3.9999831453374632e+00 4.7184543312024738e+00 2.1605486457954055e+00 0 0 0
1277 1 3.8172716822189936e+00 4.1487602439153060e+00 2.9642096284173194e+00 0 0 -1
1536 1 4.4485556771455732e+00 3.3265712857520779e+00 2.5483449925401884e+00 0 0 0
3869 2 4.9526896715285158e+00 4.0621912397359106e+00 2.7413312981044342e+00 0 0 -1
533 1 5.2756421398745941e+00 3.6679304929096506e+00 1.9645583360630596e+00 0 0 0
1158 1 5.8103732771893206e+00 3.5320401572669251e+00 2.8671601502048216e+00 0 0 0
1035 1 5.6370762200008304e+00 4.6112495850383404e+00 2.3725329782241906e+00 0 0 1
2936 1 8.9294428218365614e+00 4.8438936898104741e+00 4.8129864577473747e+00 0 0 1
1371 1 6.1194014880683163e+00 3.1773202485927925e+00 6.2572443955602219e+00 0 1 0
1880 1 8.9518417415309486e+00 7.9422109163554113e+00 5.2178190919593384e+00 0 0 0
2789 1 9.1938821598498244e+00 7.7065571834410740e+00 8.3803254518091830e+00 0 0 -1
642 1 7.5109430116046481e+00 1.7924408396327838e+00 4.5204265199409539e+00 0 0 0
3800 2 9.1950408790660880e+00 5.7547972880440348e+00 4.7502653645643758e+00 0 0 -1
1316 1 1.0001075688193819e+01 1.5525060820072010e+00 1.4180613656958563e-01 0 1 0
2155 1 7.0032435056273403e+00 3.5188095524635954e-01 7.5829220434472511e+00 0 0 1
2234 1 8.0065043804689484e+00 2.6313834356540493e+00 1.8882723450532048e+00 0 0 1
2661 1 8.5010480292014456e+00 3.7794356471053874e+00 6.4399223310507230e+00 0 0 1
2167 1 9.2727796861030889e+00 1.6964984369996119e+00 7.9595200262084047e+00 0 0 0
3848 2 1.0256874073182821e+01 3.7555516442598647e+00 5.4961759956078202e+00 0 0 -1
1835 1 9.0135271954096083e+00 1.2798915702834792e+00 8.6791809195348368e-01 0 1 0
3135 1 9.4799840697662603e+00 2.2426074569474741e+00 7.4446408969308164e-01 0 0 1
1849 1 1.0538876429969172e+01 6.9926312472278118e+00 3.6588227454887092e+00 0 0 0
3100 1 1.0747375781607392e+01 4.7242117554261931e+00 4.1909424653987921e+00 0 0 -1
2444 1 1.0070056828628770e+01 6.1182962319881486e+00 2.1590207274295827e+00 0 0 0
2120 1 1.0019691943990766e+01 1.8272549286556579e+00 2.3505015568312011e+00 0 0 0
1098 1 9.5831482676492925e+00 9.3167458353753982e+00 6.3728245924323410e+00 0 0 0
525 1 2.6762847025487919e+00 4.9934259173897813e+00 1.2708142700259688e+00 0 0 0
4053 2 3.0835487855895041e+00 4.9065075612396667e+00 2.0421831741182870e+00 0 0 -1
682 1 2.9639945820798026e+00 6.6799565227392641e+00 8.8144950992652582e+00 0 0 0
3575 2 3.1225175047052618e+00 6.5547761077861777e+00 3.9262972257279047e+00 0 1 0
1083 1 4.6306118753221952e+00 4.8366314571808768e+00 3.0500888028985509e+00 0 0 0
662 1 3.5373527160453504e+00 5.5113162068113573e+00 1.6923225910175628e+00 0 0 1
635 1 3.1726942166905410e+00 5.0319260011791824e+00 3.0195989339863671e+00 0 0 0
579 1 3.7288671014532944e+00 6.5310821732112005e+00 3.2350050265176242e+00 0 0 0
1628 1 3.9364307663082210e+00 5.6197926041562072e+00 2.6312197451278778e+00 0 0 0
3475 2 4.6901104828721927e+00 5.7076831901138307e+00 3.1286730041031303e+00 0 0 -1
1421 1 6.5944067548890208e+00 4.1190768376012086e+00 8.4544391270309909e+00 0 1 0
1040 1 6.3009593638629084e+00 6.0275556208532386e+00 2.3442683205308938e+00 0 0 1
3877 2 1.0461032318842712e+01 8.8384141713432598e+00 5.0945646655615580e+00 0 0 0
1156 1 5.3219401422286845e+00 5.5036257213485795e+00 2.6383861227131868e+00 0 0 0
1745 1 6.5888689753381575e+00 9.4944511668376452e-01 6.1013956470432698e+00 0 0 0
2146 1 6.9735111112028427e+00 4.5177638079392226e+00 1.2818195900615235e+00 0 0 0
2912 1 1.0665565990205224e+01 3.0605889907002575e+00 5.0050883411438223e+00 0 1 0
1236 1 7.2988510567115998e+00 2.0449997047421000e+00 1.4341297646017506e+00 0 0 1
249 1 7.7460495884151399e+00 2.6914409476880303e+00 3.0075898395644658e+00 0 0 1
2139 1 7.9812091147571476e+00 6.8878479351265858e+00 6.8861835678643750e+00 0 0 0
3478 2 8.4775065779569374e+00 3.1210092848398898e+00 1.2661111843317991e+00 0 0 1
4243 2 1.0954312712102025e+01 9.2031277552270900e+00 2.6993775007846490e+00 0 0 0
1102 1 7.4463371094128039e+00 9.5196051428126627e-01 3.0768616704218585e+00 0 0 1
791 1 1.0251523395731745e+01 7.4500724061869015e+00 8.4562295025010386e+00 0 0 -1
581 1 9.5460791607084623e+00 4.2397916741554615e+00 1.9400061389703487e+00 -1 0 0
3973 2 3.6207391478978193e+00 8.3443489551623902e+00 1.5109086151406648e+00 0 0 -1
1507 1 6.2821467078376436e+00 9.5531348675010701e+00 9.0184623020030834e+00 0 0 0
3741 2 3.9369939709841941e+00 7.0549709458755263e+00 1.2145125080778731e+00 0 -1 2
2609 1 9.8063949883420154e+00 4.1418200889193697e+00 8.6552526141429065e-01 0 0 0
3614 2 1.0462818827688022e+01 3.4120248344752238e+00 8.1126318869367307e+00 -1 0 -1
2803 1 1.1985746370062504e+01 8.7435830816946023e+00 5.8640476279999172e+00 0 0 0
1559 1 9.0014923147354242e+00 2.5386522325684502e-01 4.3632181551500064e+00 0 0 0
2835 1 1.0200818971517739e+01 4.6030088676155128e+00 9.5998224774427641e+00 0 0 0
126 1 4.1870314879355481e+00 7.2958326225365626e+00 2.7400712775686662e+00 0 0 0
832 1 3.7232110551381714e+00 6.4995331671193606e+00 2.0246754314427839e+00 0 0 0
556 1 3.0087272154915730e+00 6.8339103355628357e+00 1.1998705166228594e+00 0 0 0
224 1 4.7443867198895333e+00 6.4407978890520843e+00 2.5370264924258898e+00 0 0 0
1602 1 4.7268786860488738e+00 6.7723316769522768e+00 1.5721383944108931e+00 0 0 0
1410 1 5.0873604817265434e+00 7.3079754688677721e+00 3.1175745062013878e+00 0 0 0
1068 1 4.5386002565651218e+00 5.7073118572098807e+00 1.8008413083449908e+00 0 0 0
1160 1 5.7272204366786603e+00 6.8541965227816677e+00 2.3152654104668016e+00 0 0 1
3953 2 5.7954402445659277e+00 7.6275285763693272e+00 2.6076244666343849e+00 0 0 -2
1438 1 5.6109152286650348e+00 6.3195169420759747e+00 3.2348258141792279e+00 0 0 0
2840 1 8.4745446426680502e+00 7.1024793766593231e+00 1.6157139913423404e+00 0 0 0
1539 1 6.6121895279047820e+00 7.0538214515398003e+00 1.8161348529287471e+00 0 0 0
1652 1 7.0199356799428436e+00 8.6122004019626353e+00 1.8728135670437569e+00 0 0 1
1388 1 6.0516071065602208e+00 7.3087559245082785e+00 3.4136941050505807e+00 0 0 1
2716 1 9.0430885776988461e+00 6.1083567029290595e+00 6.3071272255743995e+00 0 0 0
3547 2 6.6867696383328408e+00 7.9141201229660672e+00 3.5764231910280606e+00 -1 1 0
1577 1 7.2437508442580256e+00 1.9738400909699927e+00 3.5090373259521694e+00 0 1 0
588 1 7.9396080607197552e+00 4.7209327420193059e+00 3.8248239017727355e+00 0 0 0
376 1 1.9507198992220716e+00 5.3060060085007732e-01 8.4271654117114281e-01 0 1 0
1420 1 6.9393405023541685e+00 1.9939200849341610e+00 3.6576074062436520e-01 0 1 1
2494 1 6.5978005538973195e+00 3.8164906883266920e+00 2.1689017223688132e+00 0 0 0
2058 1 7.0092632432114321e+00 4.5083095920522256e+00 4.1539495957004258e+00 0 0 0
3078 1 4.9939516344990109e-01 6.0328496643301122e-01 5.3128672450501959e+00 0 0 -1
123 1 9.3966419619288075e+00 8.1421847053401777e+00 4.2192510924469060e+00 -1 0 0
2162 1 9.4817416865502366e+00 1.1046664787709295e+00 4.9893675015809649e+00 0 0 0
2373 1 1.1031511896382886e+01 5.1905823461375800e+00 5.1574439022402085e-01 0 0 0
3840 2 7.4573810449848690e+00 4.4265731867611775e+00 1.9739425022440613e+00 0 0 0
3999 2 3.4862154574128619e+00 8.2631465187125670e+00 4.7075841339124708e-02 0 0 1
3115 1 9.8498028625034024e+00 2.7287009190892513e+00 2.8513671670512379e+00 0 0 1
840 1 1.2083645905263435e+01 7.9273320288348774e+00 5.1621556198923120e+00 -1 0 0
2504 1 8.7626285024599788e+00 2.6749601847406610e+00 2.7965692565750562e+00 0 0 0
4092 2 7.0894884956268633e+00 5.1629136631282091e-01 6.7249189441732380e+00 1 0 -1
3815 2 4.7566503346567099e+00 8.1665349173576498e+00 2.8831964451023864e+00 0 1 0
3634 2 9.7646298486620786e+00 6.6326966152169531e+00 6.6674891115677770e+00 0 0 1
3583 2 5.2761655848391218e+00 6.1689379390185861e+00 1.8965594022557746e+00 -1 0 1
1857 1 9.1523155166615417e+00 6.6924278993522854e+00 8.1963897021010812e+00 0 1 -1
2708 1 8.2084120933712867e+00 7.3331148245607896e+00 8.6783780055751603e+00 0 0 0
2061 1 7.4243329972596204e+00 9.5085529419943848e-01 5.1231463686521703e+00 0 0 0
1752 1 5.9770885829909339e+00 7.9859026352046376e+00 1.8011947806098592e+00 0 0 0
1832 1 5.0382538716531782e+00 7.6585734421235996e+00 2.1322357166814809e+00 0 0 0
4118 2 4.9919058719614107e+00 9.3721338720948282e+00 1.3931172502466294e+00 1 1 1
3678 2 1.1206133151100552e+01 5.6563474998145598e+00 6.8592261543803312e+00 -1 0 0