LAMMPS data file via write_data, version 12 Dec 2018, timestep = 120000

4320 atoms
2 atom types

0.0000000000000000e+00 1.9309999999999999e+01 xlo xhi
0.0000000000000000e+00 1.9309999999999999e+01 ylo yhi
0.0000000000000000e+00 9.6549999999999994e+00 zlo zhi
4.8274999999999970e+00 0.0000000000000000e+00 0.0000000000000000e+00 xy xz yz

Masses

1 1
2 1

Pair Coeffs # lj/cut

1 1 1
2 0.5 0.88

Atoms # atomic

353 1 3.3793676048741217e+00 9.6481569740306856e+00 8.4621288548282614e-01 0 0 0
701 1 9.7168248526168721e+00 1.8223534192729169e+00 2.7748557565534147e+00 0 0 0
2399 1 5.0590696177241563e+00 8.9631353752025458e+00 1.4484332266272126e+00 0 0 0
3119 1 9.3865092953882936e+00 3.0422391546566465e+00 7.9776226759034286e+00 0 0 0
1 1 1.0303719414610596e+01 4.8636429909326688e+00 1.2792189641172877e+00 0 0 0
1737 1 8.4176953965563701e+00 7.1693525701367316e+00 4.5797751725820763e+00 0 0 0
875 1 1.5257764474594235e+00 5.8809427324737369e+00 2.7590895154332142e+00 0 1 1
1477 1 1.1933040839119409e+00 3.6153756767733380e+00 5.9020447827696207e+00 0 1 0
1553 1 2.0530593579186434e+00 9.5196368912732565e-01 5.9576799202088249e-01 0 0 0
4065 2 1.3800672587024105e+00 1.4752085192691800e+00 5.4693602328527369e-01 1 1 1
1198 1 1.1857039742406317e+00 7.2388656508742577e-01 1.0044845885595604e+00 0 0 1
868 1 1.5375211554576611e+00 1.5808508545841373e+00 1.5331181247444567e+00 0 1 0
3422 1 1.9784169378843495e+00 5.8029452397387959e-01 1.6731743361316145e+00 1 1 0
1493 1 2.5656785890653819e+00 1.5345439297813228e+00 1.5174688535699732e+00 0 1 1
4074 2 2.7858015577531532e+00 7.1851401944626747e-01 1.0293539957753894e+00 0 1 1
3203 1 3.1423237398418626e+00 1.3007940759893779e+00 5.3236524259082818e-01 1 0 0
1264 1 3.7385959491370473e+00 1.4132871155473805e+00 1.3476767188900070e+00 0 1 0
756 1 8.6850542673216680e+00 8.1237977024431238e+00 5.0311262257691798e+00 0 0 1
3758 2 3.9343122026242927e+00 6.4705494071104808e-01 1.8530141908870752e+00 0 0 1
663 1 4.4692977087721530e+00 5.9665929051986766e-01 1.1753812554811434e+00 0 0 0
963 1 4.2769893427424988e+00 1.1972771255194425e+00 3.5421883124223114e-01 0 1 1
4222 2 4.2067521867284681e+00 3.5186761870527672e-01 3.9827295071623170e-01 1 0 -1
899 1 9.0431840971841382e+00 8.1985522440666116e+00 4.0833952095574571e+00 0 0 0
1252 1 5.0507969141222224e+00 4.7096869867156632e-01 3.4448081244896461e-01 0 1 1
2154 1 5.4014747885822940e+00 8.9500263099688593e-01 1.5041961260240211e+00 0 0 1
4078 2 5.5564580101988374e+00 1.1037693840081877e+00 6.8645795514767249e-01 0 1 0
1783 1 7.0452863363733567e+00 3.0468920090690294e-01 1.0647718880342529e+00 0 1 0
1177 1 6.5230177040841388e+00 1.3277785995406757e+00 9.2989697918937053e-01 0 0 1
2805 1 6.0338947127395635e+00 4.2102871748338710e-01 8.4463802899087326e-01 1 1 1
4061 2 7.9911694600579724e+00 5.9252524939712448e+00 6.0304161425398091e+00 0 1 1
4319 2 7.6320953742745417e+00 3.0046811480249169e+00 6.9851742937441879e+00 1 0 0
2237 1 1.0183571314009189e+01 8.1985466260118915e+00 2.4507065551354192e+00 0 -1 0
3415 1 1.0023977047609881e+01 7.0950778112226951e+00 5.1855424649450939e+00 0 1 0
1861 1 8.7464202750087310e+00 9.3246976661336713e+00 6.6302375488966012e+00 0 0 0
1707 1 8.5356037353271148e+00 6.7449172144015765e+00 8.2729242145721518e+00 0 0 -1
3889 2 7.1383824375349043e+00 8.9266932858950092e+00 9.7516731264730472e-01 0 -1 1
1989 1 9.4606469188263169e+00 3.7196605029560464e-01 6.9495360269166060e+00 0 0 0
2059 1 9.8743628646431016e+00 2.2251371380214366e+00 3.9603685212858255e+00 0 0 0
1098 1 1.0439321122660417e+01 9.4169724363903526e+00 6.0828598735941091e+00 0 0 0
3611 2 8.7820327172318748e+00 2.4664431273783709e+00 6.6491908463489411e+00 0 0 -1
3477 2 1.3961136974401289e+00 5.5776372684908333e+00 4.4331097879062114e+00 0 -1 -2
2068 1 5.9644067489599033e+00 2.4111162431657199e-01 5.4233638757164959e+00 0 0 0
3224 1 2.0942164064805620e+00 1.9844915240955057e+00 5.9143147389640549e-01 1 1 0
1822 1 1.2578391926657368e+00 2.4938601960954552e+00 1.1109129118533667e+00 0 1 0
1031 1 2.2712226720549107e+00 2.8552498762447662e+00 1.3744033706847743e+00 0 0 0
3604 2 1.6490798596013772e+00 2.6862390045214370e+00 3.8655329408070283e-01 0 0 0
4308 2 2.0179467216245284e+00 2.1682795512678750e+00 1.9332536286016462e+00 0 0 1
640 1 2.4723212324584183e+00 3.0344959096975650e+00 3.6921879523286499e-01 0 0 1
1704 1 3.5469796993924514e+00 3.0632168624700307e+00 1.7153119751962445e-01 0 0 1
3626 2 3.6545006059079257e+00 1.9927271319781397e+00 1.7892209735998205e-01 0 0 0
100 1 3.3884142440333118e+00 3.2003800948150225e+00 1.3157742055959802e+00 0 0 0
951 1 3.1208008410944497e+00 2.3308599055006125e+00 8.4349647399392413e-01 0 1 1
1055 1 4.9360408035094903e+00 1.7403341797570679e+00 1.0185398543245039e+00 0 0 0
3784 2 4.5381177014516796e+00 1.3550535354955016e+00 1.6685136334479667e+00 0 0 -1
629 1 4.1742916467361484e+00 2.4554113132668363e+00 7.0326436910229873e-01 0 0 0
1563 1 5.1801420972059962e+00 2.7116661116596767e+00 1.4199196768252809e+00 0 0 0
576 1 5.9224174045300089e+00 3.1002331605798235e+00 5.7165083153164409e-01 0 0 0
1632 1 5.8267616312709514e+00 1.8681056574127479e+00 1.6268569763447382e+00 0 0 0
3737 2 5.2144313339982045e+00 2.5134867700855952e+00 6.3510589412213536e-01 1 1 0
3175 1 6.7997861309593848e+00 2.3543947923312318e+00 7.3395070810884699e-01 1 0 1
1395 1 6.2139807378546852e+00 2.8462922136662749e+00 1.5038834505498897e+00 0 1 1
3814 2 6.2661502071451807e+00 2.4794951340315730e+00 9.5870161156119060e+00 -1 0 1
1104 1 5.8039762090587947e+00 1.8924351423253949e+00 4.5909395384059137e-01 0 0 0
992 1 5.5403164094718349e-01 1.5910335714920001e-01 3.9599266216215390e+00 0 1 0
4201 2 9.3159235069222621e+00 8.0192575798627068e+00 2.3045101640185499e+00 0 -1 0
2029 1 8.5285636993885632e+00 2.1895436510523680e+00 5.6038019296758410e+00 0 0 0
1688 1 5.1980860293462161e+00 1.7941759494670448e-01 8.9267542635464334e+00 0 0 0
723 1 8.9706656913387199e+00 4.8844315801306903e-01 6.0178868288927561e+00 0 0 0
4233 2 1.3227603605798619e+00 3.5095161565905958e-01 3.5100094563585706e+00 1 1 1
1793 1 1.0703580829472413e+01 7.4478378809584687e+00 6.2152318561427595e+00 0 0 0
3961 2 1.0050051926397268e+01 2.0812644332124406e+00 6.4530671169076630e+00 0 0 0
3716 2 9.5386981013319421e+00 1.7474481831185633e+00 1.8157673666046963e+00 0 0 0
1485 1 1.5827915725423181e+00 3.4584424336645179e+00 8.4447034044634373e-01 0 1 1
380 1 2.2942134889204784e+00 4.0047809690205236e+00 1.6399626108707197e-01 0 1 1
3709 2 3.3786075678567009e+00 2.6631701099578325e-01 6.5108147588591629e+00 0 1 0
1056 1 2.5925363059697304e+00 3.8216601822923546e+00 1.1782434927967700e+00 0 0 0
965 1 1.5253323791365148e+00 3.8923122578702318e+00 1.8289994135018874e+00 0 0 1
3915 2 3.1008051363744000e+00 3.6753791243857861e+00 5.1272830615563025e-01 0 1 1
555 1 2.9571987018899373e+00 4.6057515980129589e+00 6.0852658175640839e-01 0 0 0
1214 1 3.8693126942296856e+00 3.9574653063054646e+00 8.0796452371654204e-01 0 0 1
910 1 3.4628538803819806e+00 4.1264807789456750e+00 1.9944557962855256e+00 0 1 0
810 1 4.7820162480935071e+00 3.3815913159394282e+00 5.8057917099761824e-01 0 1 1
3493 2 4.6334031541475564e+00 5.5130474189070755e+00 2.0110017147900933e-01 0 0 -1
981 1 5.7251454020447490e+00 4.1794641692054606e+00 5.3928209879078781e-01 0 1 0
3546 2 4.7761606908543417e+00 4.2408664575058257e+00 7.1098130452992436e-01 0 0 1
2081 1 5.5369723470278229e+00 3.7723901235455157e+00 1.4720404887627638e+00 0 0 0
2050 1 4.3708694434496653e+00 3.4511994467348774e+00 1.5754205309567380e+00 0 0 0
1503 1 6.9452070628763654e+00 8.0257255985949190e+00 9.1034774156708309e+00 0 0 -1
639 1 6.7743379604184542e+00 3.6600827853591866e+00 8.7599459720813322e-01 0 0 0
1153 1 7.2415987623112867e+00 4.5808736424092409e+00 1.3056470186882831e+00 0 0 0
1946 1 6.6364463353677596e+00 4.6483737074469094e+00 3.9389894776723433e-01 0 1 0
45 1 8.2539317459945796e+00 3.7114889932075346e+00 6.9660104568235504e+00 0 0 -1
3844 2 9.3155926055790808e+00 4.2487857245640583e+00 2.9848741419400961e+00 0 0 0
2414 1 7.9469096498339606e+00 1.5203864018210718e+00 1.7290246971399426e+00 0 1 1
140 1 7.4501107227531493e+00 4.0654643564210122e+00 4.1785344045280839e+00 0 0 1
1216 1 8.7772850636239816e+00 9.2724664859732115e+00 3.6716778037834068e+00 0 0 0
2036 1 1.0001272630709654e+01 3.8215299346121103e+00 9.4160085466399916e+00 0 0 -1
1691 1 8.6992625790251985e+00 1.1591608669361937e+00 1.1362390922174999e+00 0 0 1
3966 2 9.7524361300465259e+00 5.4028691993429172e+00 1.7195338586516311e+00 0 -1 0
2275 1 9.6260928292183614e+00 9.5420725806607045e+00 5.3271978192952296e-01 0 0 1
2630 1 1.1071820776549501e+01 7.0193894022141237e+00 2.8574256046301265e+00 0 0 0
439 1 4.6253795068736183e+00 9.2322534081892584e+00 5.0700998151425889e+00 0 0 -1
3059 1 1.7074736052579498e+00 4.5342584254852900e+00 9.5399576738369529e-01 1 0 0
2654 1 2.4028603215700191e+00 5.4496634409894771e+00 5.7878166785267104e-01 1 0 1
138 1 1.6552987802016612e+00 5.5017680520914887e+00 1.3673856062174667e+00 0 0 1
3671 2 1.5248882679566083e+00 5.2371902925971243e+00 5.1109887552637046e-01 0 0 1
3034 1 2.2990826159847613e+00 6.3576760062978961e+00 1.1230622545221209e+00 1 0 0
3971 2 3.2974086263106610e+00 5.4564872734097083e+00 6.9522285284004193e-01 0 0 0
146 1 4.6572184273402284e+00 6.4151282051032696e+00 1.8411495002765915e-01 0 0 0
655 1 4.9889295177829744e+00 6.2611298563416424e+00 1.1894418024776150e+00 0 0 0
206 1 4.0752191676785596e+00 4.8412461771453925e+00 3.7604414164291311e-01 0 0 1
2653 1 6.2113790555937474e+00 4.9190354460489347e+00 1.4347206586970447e+00 0 0 1
537 1 5.0057333771267780e+00 5.1053218109555374e+00 8.7733671388835333e-01 0 0 0
80 1 5.9310335345264775e+00 5.8759016006139353e+00 1.1074763331059603e+00 0 0 -1
4073 2 7.0753904150386697e+00 5.2196718750356830e+00 1.9252845790099395e+00 0 0 0
3679 2 5.8491960297949390e+00 5.0329609030593039e+00 5.5855653974518404e-01 0 1 2
1626 1 7.4465156005573556e+00 6.3473173057323535e+00 7.2139466059353017e-03 0 0 0
2357 1 7.4504107653128733e+00 5.3106077396759019e+00 1.1734491433961548e-01 0 0 0
2072 1 8.4082480387509584e+00 6.4308503194186866e+00 1.6884778772712083e+00 0 0 0
2497 1 6.4303695558889746e+00 5.7625016519808314e+00 1.6979336580367227e-01 0 0 0
1215 1 6.9311145340764728e+00 5.7045914634842365e+00 1.1930416387244289e+00 0 0 1
2665 1 8.3395055411324339e+00 6.4217962992413566e+00 5.8336418142396229e-01 0 0 1
3455 1 1.0011544108222044e+01 5.8194615012608537e+00 8.7649579417900760e+00 0 0 0
4019 2 9.6853346520468904e+00 6.7373761028327319e+00 7.1756462847292433e+00 0 0 1
2112 1 8.3865033536107170e+00 2.1433935560050803e+00 2.5552563755535642e+00 0 0 0
3338 1 9.1078065507416994e+00 6.4080510507909780e+00 4.7942666302830350e+00 0 0 0
3548 2 9.3015216748880452e+00 1.9235914355367147e+00 5.4600225532196678e+00 0 1 0
3797 2 5.2003456889862703e+00 1.9296777730258136e-01 1.1108629218746664e+00 0 1 -1
2555 1 1.0316511776566848e+01 4.4428894571768422e+00 3.0311812271516581e+00 0 0 0
4177 2 3.3579710298850411e+00 9.1929243012928143e+00 7.4969805565190741e+00 1 0 0
1724 1 9.9096815296897169e+00 6.0966251321187732e+00 6.6334093284132689e-01 0 0 1
1140 1 2.6582225726359883e+00 7.8364578792799948e+00 2.6706751519929089e-01 0 0 0
961 1 2.4040449988873864e+00 6.7116544344176789e+00 1.6338967383230660e-01 0 1 1
3670 2 9.8210278360064756e+00 7.3025437261326964e-01 6.1668285077836433e+00 -1 1 0
2218 1 1.0026072752027558e+01 9.5729352413713400e+00 7.9305555745968332e+00 0 -1 0
43 1 3.6539362928924781e+00 7.7994117138972792e+00 6.2275019092148909e-01 0 0 0
985 1 4.0871366312688320e+00 5.7617099053080398e+00 8.9600230086340882e-01 0 0 1
270 1 4.2222005525742716e+00 6.9088013684674978e+00 9.3654503582100534e-01 0 0 0
1191 1 5.6193715502344324e+00 8.1726228986371829e+00 5.6172979206198970e-01 0 0 0
4287 2 5.6526962759283172e+00 6.3645853392404543e+00 1.7588253143338541e+00 0 0 0
1694 1 4.6768320302625259e+00 7.4678155545261129e+00 2.0387187988343677e-01 0 0 1
1963 1 5.2155916470340209e+00 8.4261611840188806e+00 9.2010901145289257e+00 0 0 0
3539 2 5.9273188242650532e+00 6.5077834137370276e+00 9.6484415966028543e+00 0 0 0
1101 1 6.6159435651463614e+00 6.6787921926604490e+00 5.3445767814789413e-01 0 0 1
1364 1 6.1654677018519379e+00 7.4064684519039519e+00 2.6927826929233546e-02 0 0 0
1222 1 5.5672852910582105e+00 6.9089005807385968e+00 7.1019700209892667e-01 0 0 0
1980 1 6.2587763832476533e+00 7.4988564150993708e+00 1.1001740664263051e+00 0 0 0
3871 2 5.3846347928486225e+00 7.6584617907089720e+00 9.4682950750270614e+00 0 0 -1
2416 1 8.2933092187891013e+00 7.3854434949159584e+00 7.8606057681088093e-01 0 0 1
551 1 7.5035559678557275e+00 6.7645910388927177e+00 1.1302194483692189e+00 0 0 0
4230 2 9.0174260205484469e+00 7.8005730628848733e+00 9.9000529827397765e-01 1 0 0
1784 1 7.9592890300714636e+00 7.9915242502854795e+00 9.4494804822837999e+00 0 0 -1
2536 1 9.1622033280531596e+00 1.6328824896004230e+00 6.2778533106290997e+00 0 0 -1
2954 1 1.1314500787143285e+01 8.1909077076885133e+00 3.7431745583121334e-01 0 0 0
1230 1 7.8656713586032758e+00 5.1719309296667086e+00 3.5492159632356128e+00 0 0 1
121 1 2.6310883764730875e+00 8.7885865763359767e+00 7.8631020840100885e-01 0 0 0
2833 1 3.5201051216147992e+00 8.7968384093650105e+00 2.6698240884767377e-01 1 0 1
959 1 2.9311914744168064e+00 8.0260787729729337e+00 1.4194364635140937e+00 0 0 0
998 1 3.8977171556876407e+00 8.7309733287342670e+00 1.2130621119056304e+00 0 0 1
2791 1 9.4394048169891320e+00 2.2830711748655803e+00 7.2202335367005386e+00 0 1 -1
645 1 3.9515064218874638e+00 7.7707681273049900e+00 1.7029724314146772e+00 0 0 1
203 1 4.5576961862171537e+00 8.4825734950710263e+00 4.3310817038601351e-01 0 0 1
3103 1 7.8118748388815522e+00 2.5700433394436550e+00 8.3462225930374405e+00 0 0 -1
4221 2 9.4734374531349221e+00 3.5028637405612306e+00 6.1092463049073977e+00 0 1 0
2263 1 6.1096807429549749e+00 8.9755236859463832e+00 1.0599539124094721e+00 0 0 0
1120 1 4.4087283721480341e+00 8.4987249645867173e+00 2.2197467284869750e+00 0 0 0
3064 1 4.8322591795757823e+00 7.8975341307360525e+00 1.2905874826006376e+00 1 0 0
204 1 6.4667038876217191e+00 8.5955099838136295e+00 2.6261763495898434e+00 0 0 0
1037 1 7.7061802578326972e+00 9.1460121064505084e-01 7.1041555169787252e+00 0 0 -1
3629 2 6.1372330458540425e+00 8.2664285059280722e+00 9.3636678027037767e+00 0 0 -1
1613 1 6.6744928175302132e+00 8.3576931527421721e+00 4.9592896247585072e-01 0 0 1
2200 1 9.4915374654059761e+00 5.0585138297547738e+00 8.1359600086765536e+00 0 0 0
738 1 9.1352249875074278e+00 9.4420583273214280e+00 2.6812940506468608e+00 0 0 0
2626 1 7.6665725265691211e+00 8.8710402305704275e+00 2.3636017744413593e-01 0 0 0
1908 1 8.6271575818745347e+00 8.4893762928398058e+00 4.3540550079364709e-01 0 0 0
2908 1 7.8724399555588755e+00 1.4902343317021320e+00 3.4389263315993723e+00 0 1 1
1759 1 9.4725613407273457e+00 3.2661149633514963e-01 8.1871975822047034e+00 0 1 0
1362 1 8.4707742616193293e+00 9.0827865038443392e+00 9.1975018843599017e+00 0 0 -1
3927 2 7.6302187416776110e+00 2.2823433238562565e+00 2.8962036166352101e-01 -1 1 1
4167 2 8.6187408537459973e+00 2.8415869028874652e+00 4.9504439358679324e+00 0 1 0
3712 2 7.8561392335328701e+00 9.3496525167817079e+00 8.0306497423996248e+00 0 0 0
4129 2 2.8925270977933786e+00 3.1482079161505738e-01 4.8348486404057223e+00 0 0 0
1997 1 7.5068066171294214e+00 7.1137995111579111e-01 1.7484669480572951e-01 0 0 0
242 1 8.8016987002353062e+00 7.9650628205279963e+00 8.8587306649719153e+00 -1 0 0
2041 1 1.0620614499997576e+01 8.1878835784765638e+00 5.4075028806655689e+00 0 0 0
2567 1 4.8442719289891905e+00 9.5070295764174215e+00 8.3262392010359356e+00 1 0 -1
1541 1 1.0932736581101778e+01 9.3166296583792949e+00 5.1868545531355945e+00 0 0 0
2734 1 1.1192143912783123e+01 9.1927807667573180e+00 1.2795973945685408e+00 0 0 1
3078 1 2.0668613177436850e+00 1.8931675947661930e-01 5.4412414079663076e+00 0 0 -1
950 1 8.4677389005556536e-01 9.7805873071613203e-01 2.1020969870209361e+00 0 1 0
1238 1 6.6842202901376824e-01 7.7343243110383819e-01 3.1575330810518842e+00 0 0 0
4130 2 1.6996742281249739e+00 1.1033973745014625e+00 2.3620789367653092e+00 0 0 -1
3430 1 2.4175451233777627e+00 1.6030836085032705e+00 2.5363213810626659e+00 1 1 1
3272 1 1.7043222704505370e+00 1.0984685234149421e+00 3.2289694355007423e+00 1 1 0
416 1 2.4645587780779752e+00 5.3598423541717022e-01 2.8323125043008197e+00 0 1 1
1875 1 3.0327059772115321e+00 7.7603216351453741e-01 1.9979383023090882e+00 0 1 1
3905 2 3.0876799622618503e+00 1.1507541115922786e+00 2.8313602881016866e+00 1 1 0
2405 1 3.8606992796090287e+00 1.4134151310891379e+00 2.3849088293621032e+00 0 1 0
27 1 3.6935040593619139e+00 3.7804644903394052e-01 2.7785782405874455e+00 0 1 0
2689 1 3.8474620320350743e+00 1.1103183175111382e+00 3.4841090841525948e+00 1 0 0
3459 2 4.6523908822832274e+00 1.2612375328251422e+00 2.8480611768875845e+00 0 0 0
1032 1 4.7124861013362569e+00 6.2199013420468696e-01 2.2541741426673676e+00 0 0 0
820 1 5.6303749434687393e+00 1.0468224407317614e+00 2.7621268386941513e+00 0 1 0
2197 1 1.1601627574243977e+01 9.3524993579267299e+00 3.5353605158061352e-01 0 0 2
1863 1 6.4210834444926554e+00 9.0263073561791751e-01 1.9713751857580859e+00 0 1 0
1231 1 6.5456404826118142e+00 2.4693278554906961e-01 2.7724549817886861e+00 0 0 1
3639 2 6.4765734214449466e+00 1.1040631440052351e+00 2.9314825481463584e+00 0 0 1
2256 1 8.0495649071440454e+00 6.6741544068826784e+00 6.4210489665517407e+00 0 0 0
720 1 8.9329827087077334e+00 5.0295302929542878e+00 7.1624813835478527e+00 0 0 0
279 1 7.6748428263075548e+00 3.4654609240569192e+00 7.7634025734652088e+00 0 0 0
3760 2 9.4393113233850379e+00 6.7166685678337137e+00 3.3161218926428906e+00 0 0 0
1188 1 7.9683492190845007e+00 5.1353266515791884e-01 8.8331888183097558e+00 0 0 0
2911 1 7.8250282729704335e+00 2.4161903816037400e+00 1.1781972508004512e+00 0 1 1
3606 2 9.8906180635417442e+00 4.8604714800386599e+00 7.3161615342657855e+00 0 0 -1
1590 1 7.7161107503962034e+00 6.9505132859224164e+00 7.4879338983932096e+00 0 0 0
2680 1 9.3079704440194817e+00 1.2268061253107538e+00 7.5963755989557491e+00 0 0 0
1587 1 1.0989701133702335e+01 6.2326741893245377e+00 4.3623200977786603e-01 0 0 1
3517 2 1.1222478687173354e+01 7.9387450847527399e+00 4.8214151244868626e+00 -1 -1 0
1507 1 5.8144294879788259e+00 9.5143896734451090e+00 8.7502402862335860e+00 0 0 0
2519 1 1.0967211413142918e+01 6.7960531206852037e+00 4.7866843752597168e+00 0 -1 0
3952 2 1.9310268565422724e+00 1.9438662831854112e+00 3.2554484863417992e+00 1 1 0
1123 1 1.4153350492474952e+00 1.9578337244400588e+00 2.5483689772210538e+00 0 0 0
538 1 1.4314997857280387e+00 2.8989415576444295e+00 2.1120043877792232e+00 0 0 0
610 1 2.2793737468755797e+00 2.5706308765300654e+00 2.6532196715518137e+00 0 0 0
4097 2 2.8440364559994826e+00 3.0685101961504575e+00 2.9829916845248907e+00 0 0 1
527 1 3.1263344724820641e+00 2.3488679615133372e+00 1.8984946960885756e+00 0 0 0
427 1 4.2206728768770141e+00 2.2629403561418009e+00 1.9005480821842711e+00 0 1 0
699 1 3.3333461747151762e+00 2.0959548488468940e+00 2.9300960219146037e+00 0 0 1
1026 1 3.7054359822940959e+00 3.0264983605299567e+00 2.4453475520773029e+00 0 0 0
354 1 5.0094460989697751e+00 1.7416330218126130e+00 2.2385120110795396e+00 0 1 0
4141 2 5.7229788989046861e+00 2.4768753506493431e+00 2.2371935274178538e+00 0 2 0
2060 1 4.3901893962651393e+00 2.0778706258815580e+00 2.9922971543249561e+00 0 0 0
753 1 4.8809325663146899e+00 2.9781979270354331e+00 2.3946606990672312e+00 0 0 1
2422 1 5.4484278240520139e+00 2.3816782670697565e+00 2.9972003015952602e+00 0 1 1
1250 1 6.9270933427315295e+00 1.9724710383766717e+00 1.7238005461752230e+00 0 1 0
706 1 6.2245302975508094e+00 1.9353535868785248e+00 2.6135117372618160e+00 0 0 0
3775 2 1.0117213725071611e+01 1.8549859574205481e+00 7.5180252178617586e+00 0 0 1
3921 2 6.5115805569263081e+00 2.7019750711838215e+00 2.4229739985161292e+00 0 1 -1
3124 1 7.2488090648613710e+00 3.0230436300181363e+00 1.7825559177762043e+00 0 0 1
3991 2 7.8756205981376155e+00 6.6513370960090601e+00 4.2077908871505336e+00 0 1 1
3029 1 8.7018202814520400e+00 3.9480344804096470e+00 3.5654201638841632e+00 0 0 0
2196 1 8.0189977981166880e+00 2.4697428260347101e+00 4.3448193596055473e+00 0 0 1
16 1 7.3242300424206093e+00 5.0000121126349739e-01 6.1860499742490420e+00 0 0 0
3969 2 8.9211779806060267e+00 2.7659508646605362e+00 8.7526700738011325e+00 0 0 0
1094 1 8.5498362374846621e+00 3.0378230758923004e+00 6.5401190795152975e-01 0 0 0
1844 1 1.0156679482013850e+01 6.3331023250185661e+00 2.8582072439352744e+00 0 0 1
2739 1 8.8764648932251422e+00 1.2946766256401654e+00 2.1130846080755790e+00 0 0 1
2723 1 9.7857781078767694e+00 2.9572371641975139e+00 8.9529406761348440e+00 0 0 0
1194 1 9.6100414446044891e+00 4.8906724910748456e-01 5.1178496086071208e+00 0 0 0
1433 1 1.8775006707941477e+00 3.6188870402129711e+00 2.7378819409087516e+00 0 1 0
1829 1 1.1702998243690562e+01 9.1724520945536003e+00 6.1860250355936239e+00 0 0 0
1288 1 2.4716552151967646e+00 4.3711306608207368e+00 2.4469184014133538e+00 0 1 0
1181 1 2.7143731428637379e+00 3.3771983838111090e+00 2.1711813461197593e+00 0 0 0
3295 1 3.2934176748013475e+00 3.8381761885811416e+00 2.9838531250017142e+00 1 1 0
2213 1 3.3112075009711237e+00 5.1993655328093853e+00 2.3515399785195008e+00 0 0 1
2427 1 4.3075201899940723e+00 3.9338703523164980e+00 2.6677472515290392e+00 0 1 0
4235 2 5.5540590092756545e+00 3.2151449808566741e+00 3.1736155545588671e+00 1 0 -1
649 1 4.6411083880223174e+00 4.4526556315211456e+00 1.6157553833260632e+00 0 0 1
3508 2 5.0206634059011437e+00 3.8210625886970728e+00 2.2245228104986268e+00 0 1 1
1639 1 5.6557275393310764e+00 4.4917171571401324e+00 2.2177297336303115e+00 0 0 0
1277 1 5.2709085829136049e+00 4.0303398030574993e+00 3.0417976778736415e+00 0 0 -1
1536 1 5.8259888868475782e+00 3.3490618110602286e+00 2.4093173069474538e+00 0 0 0
3869 2 6.1523019798716732e+00 4.1975956438053101e+00 2.8275335757995306e+00 0 0 -1
533 1 6.5356452015851163e+00 3.9218407538198061e+00 1.8384809486562341e+00 0 0 0
1158 1 6.9092250191774296e+00 3.4571913262118317e+00 2.7446489832484100e+00 0 0 0
1035 1 6.9395956901240838e+00 4.6183929445329808e+00 2.4805995543249089e+00 0 0 1
2936 1 1.0217250463259063e+01 5.0168680031313553e+00 5.0574940301905720e+00 0 0 1
1371 1 7.4662086754673203e+00 3.3358858510235962e+00 6.2218350741751767e+00 0 1 0
1880 1 9.6776489402580932e+00 7.8270246128183807e+00 5.9516573161578386e+00 0 0 0
2789 1 9.9037981919010960e+00 7.8776293703462121e+00 8.7954347025756316e+00 0 0 -1
642 1 9.0104583306504438e+00 2.1821650698250594e+00 4.6591063765730576e+00 0 0 0
3800 2 9.9819241731776724e+00 5.3740672688981332e+00 4.2446439778115064e+00 0 0 -1
1751 1 9.1643919608075741e+00 3.0670364588539317e-01 1.7998422529430853e+00 0 0 1
2155 1 8.5323403184323166e+00 5.8025526786634485e-01 7.7335619179259192e+00 0 0 1
2234 1 9.4160337491651127e+00 2.6890005272359851e+00 2.1448533001676742e+00 0 0 1
2661 1 1.0003089351156042e+01 4.0397039540764963e+00 6.5745530431382626e+00 0 0 1
559 1 2.0351960990934503e+00 7.5299835095948575e+00 1.8990756362453227e+00 0 0 0
1004 1 1.6225482017708601e+00 4.8644021009886824e+00 2.2211000284564615e+00 0 0 1
1994 1 2.3722235413028354e+00 5.8387248284391111e+00 2.0945514457858891e+00 0 0 0
64 1 2.4843460255816709e+00 5.3983350997068538e+00 3.0627777094190671e+00 0 0 -1
3162 1 4.7128723962021652e+00 9.5420504568218529e+00 6.0946805020046160e+00 1 0 0
157 1 3.1427072666354130e+00 6.3345004298766145e+00 2.5259312272861449e+00 0 0 1
4018 2 7.1938134264591707e+00 9.6482532300677271e+00 6.0011564282703631e+00 0 0 -1
1139 1 2.5093425106121989e+00 4.8446480570292465e+00 1.5451899306909496e+00 0 0 0
3037 1 3.2066066310849379e+00 5.9046301133413355e+00 1.4919420840509632e+00 1 0 0
525 1 3.6495493370320289e+00 4.9144985035000994e+00 1.3182149572638895e+00 0 0 0
4053 2 4.0668457814277170e+00 4.7298113464396438e+00 2.2475317468831935e+00 0 0 -1
827 1 4.3256532625317270e+00 5.4684533808969782e+00 1.8972034571236314e+00 0 0 0
3575 2 4.5910469878942815e+00 6.4720788289928670e+00 3.1424694852278114e+00 0 1 0
1083 1 5.9953485052342659e+00 5.0489551178263801e+00 2.9958584277487450e+00 0 0 0
662 1 5.3586349434263472e+00 5.4795373673993559e+00 1.9414833006792926e+00 0 0 1
635 1 4.7415821942149252e+00 4.8538129800475431e+00 2.7418437893479486e+00 0 0 0
579 1 5.3030404183052280e+00 5.8665099972852079e+00 3.0383682259460678e+00 0 0 0
1628 1 6.3820019243687023e+00 5.6905877727747161e+00 2.1362403921609165e+00 0 0 0
3475 2 6.2258477046954415e+00 5.9100832587802854e+00 3.0290253794871034e+00 0 0 -1
1421 1 8.5673161324238229e+00 4.4644249074434210e+00 8.0026756393628808e+00 0 1 0
1040 1 7.4567676502630302e+00 6.0300929987777456e+00 2.0583221246341292e+00 0 0 1
3877 2 1.1603498170507027e+01 9.0549771380281445e+00 4.4962415874972663e+00 0 0 0
1156 1 7.1274454264110521e+00 5.5337610283043457e+00 2.8868922937151096e+00 0 0 0
1745 1 8.1490180746627914e+00 1.2013936149606379e+00 6.1625094133537974e+00 0 0 0
2146 1 8.2717623269417722e+00 4.4865510201167398e+00 1.3075084486083790e+00 0 0 0
3999 2 3.9123328673968700e+00 6.9057314500516300e+00 1.0312737079257660e-01 0 0 1
1236 1 8.8028450834556189e+00 2.1336990584658411e+00 1.4516304745195154e+00 0 0 1
249 1 9.0499803448458280e+00 3.0670348467701385e+00 3.0451706229363622e+00 0 0 1
2139 1 9.0697005732871219e+00 7.5456494809308037e+00 6.7956078162680518e+00 0 0 0
3478 2 9.2415442890840165e+00 2.9402323136771176e+00 1.2153359160512420e+00 0 0 1
4243 2 9.9361387198249638e+00 9.0089352805231790e+00 2.6825301783330637e+00 0 0 0
1102 1 8.8865883372671206e+00 1.2424314963706033e+00 3.2217331011078496e+00 0 0 1
791 1 1.1258468683395900e+01 7.0274600391111619e+00 8.3493118264340733e+00 0 0 -1
581 1 1.0580206948924282e+01 4.2606151037690321e+00 2.0751459443241078e+00 -1 0 0
3256 1 3.1928314804845250e+00 7.0418758390030307e+00 1.3292611218603172e+00 1 0 0
1921 1 7.0590098450055869e+00 9.2393546058694014e+00 6.7917217360509827e+00 0 0 0
3741 2 4.5992229856621583e+00 7.0424559690979356e+00 1.7768107302441942e+00 0 -1 2
2990 1 1.9776587245594994e+00 7.2829547094464582e+00 8.9682662625997123e-01 1 0 0
3855 2 2.5401917795610984e+00 6.7577456256690782e+00 1.8762026118867219e+00 0 0 -1
895 1 2.9041575155902395e+00 7.3940403532976120e+00 2.3677326475141451e+00 0 0 1
1530 1 2.0948924077314168e+00 6.7225431460424918e+00 2.7441118931676201e+00 0 0 1
3638 2 2.7674795201483446e+00 8.1386491925290230e+00 3.2233607821665213e+00 0 0 0
126 1 4.8825358511247874e+00 7.6341454773227797e+00 2.4408075881988665e+00 0 0 0
832 1 4.8981472408120545e+00 6.4730732141998351e+00 2.3240265499713559e+00 0 0 0
556 1 3.9657289885724474e+00 6.4376451783801683e+00 1.8625216645261062e+00 0 0 0
224 1 5.8745703662645763e+00 6.6267122811987234e+00 2.6375924600663492e+00 0 0 0
1602 1 5.5105642130970445e+00 7.2129826271793753e+00 1.7421216299057034e+00 0 0 0
1410 1 5.6221986681229374e+00 7.9619110468079697e+00 3.0522135237861230e+00 0 0 0
1068 1 6.6062445319897973e+00 6.6716117323892599e+00 1.6479596077741949e+00 0 0 0
1160 1 6.4578305126181164e+00 7.5520575218855184e+00 2.3086951184503230e+00 0 0 1
3953 2 7.2058792905633862e+00 7.0341841217661534e+00 2.3161292714699324e+00 0 0 -2
1438 1 6.8435125000149073e+00 6.5202901884823108e+00 2.9309424869951388e+00 0 0 0
2840 1 8.8366693918320287e+00 7.3858786574425688e+00 1.8966670422002687e+00 0 0 0
1539 1 7.8152207081732037e+00 7.5107019672754785e+00 1.7918208167476786e+00 0 0 0
1652 1 7.7337402424019110e+00 8.6202106853210729e+00 2.0567168727071232e+00 0 0 1
1388 1 6.6171193181513139e+00 7.4707474430644734e+00 3.3458164796030752e+00 0 0 1
2716 1 9.7213109140191207e+00 6.8493020960538527e+00 6.2797068186936231e+00 0 0 0
3547 2 7.2035974674810852e+00 8.0402846836163242e+00 3.6790495022694998e+00 -1 1 0
1577 1 8.7536903662063654e+00 2.2361460558030997e+00 3.6157656484778196e+00 0 1 0
588 1 9.3431505680782738e+00 4.8072615717753422e+00 3.6679432047891987e+00 0 0 0
376 1 3.5379611915415921e+00 4.2213996204076343e-01 9.8950269175392169e-01 0 1 0
1420 1 8.5105535209451002e+00 1.9499610117976691e+00 4.2165331140535323e-01 0 1 1
2494 1 7.7040280776700545e+00 3.9252499471221998e+00 2.0897808884015383e+00 0 0 0
2058 1 8.3642210431904438e+00 4.7446214508026623e+00 4.3451230248100909e+00 0 0 0
3694 2 6.8846937293920263e+00 7.8202030532468686e-02 3.5621165286406566e+00 0 1 1
123 1 1.0436182358256039e+01 7.6224751823996382e+00 4.3206040559241945e+00 -1 0 0
3853 2 2.4765625109573874e+00 9.5273096084668154e+00 1.1905589979979947e+00 0 -1 1
2635 1 3.6510426767956519e+00 9.0841212588256326e+00 2.7817138437589279e+00 1 0 0
3840 2 8.7610328728957967e+00 4.6936636045536444e+00 2.0258183784102806e+00 0 0 0
3973 2 3.5345328941644913e+00 8.4644851070222060e+00 2.0013653062537915e+00 0 0 -1
144 1 2.7282312206623573e+00 8.4460975513233958e+00 2.3616005330747454e+00 0 0 0
644 1 2.9576323591612641e+00 7.3067557701290307e+00 3.4270252705659905e+00 0 0 1
2504 1 1.0138413911965673e+01 2.8606923134726396e+00 3.1158744949485309e+00 0 0 0
4092 2 8.7946974031455802e+00 9.4100699978283953e-01 6.7163610729051708e+00 1 0 -1
3815 2 5.0116830816685800e+00 8.9914538595827853e+00 2.3911078628793634e+00 0 1 0
3634 2 1.0979881340141674e+01 6.7822441672401439e+00 6.7413958275506083e+00 0 0 1
3583 2 7.1038085872475287e+00 7.5933642577619072e+00 1.3074988553509488e+00 -1 0 1
1857 1 1.0276777348872907e+01 6.8542370537257842e+00 8.5762356105894906e+00 0 1 -1
2708 1 9.2596762516007516e+00 6.9916007059509191e+00 8.9460856360072416e+00 0 0 0
2061 1 8.7743394357761488e+00 1.2349133315923191e+00 5.2621103682648291e+00 0 0 0
1752 1 6.7164526204110544e+00 8.3363639287962155e+00 1.5577610673184861e+00 0 0 0
1832 1 5.7782774324778234e+00 8.2494800175459027e+00 1.8038815167358513e+00 0 0 0
1442 1 8.1366791481346254e+00 9.1264997127879468e+00 1.2530188006532796e+00 0 0 0
4279 2 7.3402594139464465e+00 9.3391985782270250e+00 2.3849835469913510e+00 1 0 0
1529 1 6.3531232850759967e+00 8.3867510226945878e+00 3.6364668693243827e+00 0 0 0