LAMMPS data file via write_data, version 12 Dec 2018, timestep = 80100528

4320 atoms
2 atom types

0.0000000000000000e+00 1.9309999999999999e+01 xlo xhi
0.0000000000000000e+00 1.9309999999999999e+01 ylo yhi
0.0000000000000000e+00 9.6549999999999994e+00 zlo zhi

Masses

1 1
2 1

PairIJ Coeffs # lj/cut

1 1 1 1 2.5
1 2 1.5 0.8 2.5
2 2 0.5 0.88 2.5

Atoms # atomic

1009 1 1.6546138903202099e+00 1.3412872414423962e+00 1.1983996320653194e+00 0 1 1
972 1 9.3318924265983194e-01 4.8825857932457079e-01 6.5651682147707613e-01 0 1 1
513 1 2.1632741527857706e+00 9.4716358139719936e-01 2.9277093602042625e-01 0 0 0
94 1 5.9041100871243080e-01 1.4766778871838928e+00 8.3972792483503411e-01 0 0 0
4030 2 1.3031928215617294e+00 1.2714948244453046e+00 3.2246982155246751e-01 1 1 0
1511 1 1.9198342980864391e+00 3.4219338148845990e-01 1.1912468458906615e+00 0 1 1
3511 2 2.4369257088510770e+00 1.8441596755836325e+00 1.1244523517800260e+00 0 0 1
4287 2 2.0749387292948046e-01 8.7540490797928694e+00 1.3098993544130115e+00 1 0 0
559 1 1.9205143146758139e+00 1.9612868362100462e+00 3.8086496753702603e-01 0 0 0
527 1 1.2439012817573682e+00 2.3049351118894488e+00 1.0475705501371000e+00 0 0 0
22 1 2.2108634735864277e+00 2.7016012414755020e+00 1.0201608716444672e+00 0 0 0
3625 2 5.8955239408451765e-01 2.4294476330323893e+00 5.2621379933660406e-01 0 0 1
79 1 1.4863728929358513e+00 3.0169594987472350e+00 2.9147463019299663e-01 0 0 0
595 1 5.8347597088593639e-01 3.2173554822801989e+00 8.3005691245683955e-01 0 0 0
107 1 1.5254577207002233e+00 3.3762058494048142e+00 1.2688067191531633e+00 0 0 0
3019 1 2.0495134438695684e+00 3.9490380483395109e+00 5.2654114496272841e-01 1 0 0
3155 1 2.4959269593546578e+00 4.6427363912182109e+00 1.4263153402879238e+00 1 0 1
52 1 1.3628068519524532e+00 4.4210044395853103e+00 1.0594764621089439e+00 0 0 0
742 1 2.7519587281636088e-01 4.3053063348431992e+00 9.5753695124137272e-01 0 0 1
4216 2 3.5826619091319362e-01 6.8317963611338364e+00 2.8090096271598006e+00 1 0 1
1269 1 9.6235254755231314e-01 3.8628366029191725e+00 1.1291615548877382e-01 0 1 1
310 1 1.4179840001345212e+00 7.4624750618808999e+00 4.6823636090435778e+00 0 0 0
4055 2 2.5367938465996089e+00 5.4241401240848406e+00 1.0545281154639790e+00 1 0 1
217 1 2.3399114655957938e+00 4.9230077370187377e+00 3.2317030726218032e-01 0 0 1
4127 2 1.5091129209863354e+00 5.2021929516967882e+00 5.5071141681015712e-01 1 0 2
2549 1 7.6301869584592630e-01 5.2195635824445210e+00 1.0255604144367376e+00 1 0 0
510 1 1.9835806330150916e+00 5.9602469218760135e+00 5.8673920516094225e-01 0 0 0
2866 1 6.0448193988116916e-01 6.0306473394769782e+00 2.1769200397187671e-01 1 0 0
3347 1 1.0972535788586564e+00 6.1589017479030943e+00 1.1521442657431307e+00 1 0 0
3592 2 2.3525165876277268e-01 5.9202181225582864e+00 1.0129154723907354e+00 0 0 0
2790 1 1.7696824367592228e+00 5.3769214738142024e+00 1.4091743138774371e+00 1 0 0
849 1 2.4521281151555594e+00 6.1771575927203157e+00 1.5328698361807949e+00 0 0 0
542 1 2.6650930181691351e-01 6.8642626520972101e+00 9.1129520092618288e-01 0 0 0
63 1 1.8748517771744864e+00 6.8725991438936154e+00 1.0372827730584722e+00 0 0 0
3523 2 1.0722887017540643e+00 6.8289024300775107e+00 5.5735480577299845e-01 0 0 1
745 1 9.7887608524606040e-01 7.4075436964353614e+00 1.3980048625683184e+00 0 0 1
3044 1 1.1210375617714525e+00 7.8006318281199833e+00 3.1275865391826380e-01 1 0 1
1325 1 2.2123267350456666e+00 7.5441624822530509e+00 3.1706455822884355e-01 0 0 1
3208 1 3.2256266320051441e-01 7.9560594276371228e+00 8.4921471411679039e-01 1 0 1
2990 1 2.3866062156769483e+00 7.7144191592762725e+00 1.5087198548924514e+00 1 0 0
4242 2 1.7029054600780260e+00 8.0530559743186299e+00 9.7419666266177907e-01 1 0 1
1245 1 2.7542312172169696e+00 2.2552073734887754e+00 2.7427520742283367e+00 0 0 0
3383 1 8.7494621200392875e-01 9.2988733941535369e+00 1.5087207843820988e-01 1 0 1
4210 2 2.2062885462686590e+00 9.5507942780549833e+00 5.0434705354717457e-01 1 0 0
3976 2 5.7109001080675525e-01 8.5168450893306691e+00 2.1637831978144809e-01 1 0 0
633 1 1.0617194153470328e+00 8.6161435782440634e+00 9.7792351447207404e-01 0 0 0
99 1 2.1228628470058513e+00 8.7941293731174355e+00 1.3491991427626966e+00 0 0 0
2635 1 1.8996844415866188e+00 8.5847979752333110e+00 2.3225260818766677e-01 1 0 1
3144 1 4.4456028442529916e-01 9.5757288268273584e+00 1.1938786151262768e+00 1 0 1
51 1 1.5973493992401369e-01 9.2094142017380118e+00 2.2286361878410927e+00 0 0 0
993 1 3.7209446927751155e-01 8.4424313338231347e-02 4.6284471661995399e+00 0 1 0
560 1 2.5253538833588176e+00 1.0153145796762193e+00 1.6489149743277778e+00 0 0 0
34 1 7.5888879437377210e-01 9.4251333557550920e-01 1.7012975219152766e+00 0 0 0
31 1 5.4033658483924929e-01 1.1311787747048738e+00 2.6989412997023110e+00 0 0 0
2858 1 1.5574091765666906e+00 9.5489969102955863e-01 2.3186355868148811e+00 1 1 0
673 1 2.4493892368598189e+00 1.2003077336619574e+00 2.8422900922275640e+00 0 0 1
3601 2 1.3240251070091935e+00 2.8173993708103889e-01 1.8348112602351605e+00 0 0 0
666 1 1.3807965132327045e+00 1.6034963862583036e+00 3.0865302818570077e+00 0 0 1
491 1 2.1309675754114155e+00 1.1494369809913996e-01 2.3427783499231833e+00 0 1 1
96 1 1.4948881968975745e+00 5.6306463036730381e-01 3.3426807352124412e+00 0 0 0
3644 2 1.5774096963831703e+00 2.5476295486229255e+00 1.8445326299949514e+00 0 0 1
3158 1 7.6885074671702880e-01 2.9305738752586916e+00 1.8858722587042533e+00 1 0 1
285 1 2.0396590705694231e+00 1.8627623483472298e+00 2.0587878014636538e+00 0 1 0
1374 1 9.8873654524432508e-01 1.9005898670635293e+00 1.9995767420353006e+00 0 1 0
1108 1 1.6415649997490485e+00 2.5919151245743759e+00 2.6995818708367612e+00 0 0 0
565 1 6.1076345018980882e-01 2.4031635565310245e+00 2.7660265500722168e+00 0 0 0
693 1 2.2760801187554565e+00 3.1250665553611232e+00 2.0966078404157407e+00 0 0 1
3067 1 1.0215112137398109e-01 7.7778099012839332e+00 3.3117441783529249e+00 1 0 0
3754 2 8.6590306849669274e-01 3.7633765948749649e+00 1.5337050777544405e+00 0 0 0
3725 2 1.8991030462203686e+00 3.9971791705652135e+00 1.6636219570195439e+00 0 0 1
121 1 2.5623325128604824e-01 3.6846552339452541e+00 2.5369040754290144e+00 0 0 0
636 1 1.3841895727888704e+00 3.6711287025872918e+00 2.3507348756075301e+00 0 0 0
3039 1 7.5819834559294885e-01 4.5659556327712441e+00 1.9339675708975865e+00 1 0 0
3245 1 8.4761784672291696e-01 4.3754881967802453e+00 3.0483896820387599e+00 1 1 0
62 1 2.5915149815041119e+00 4.0289729656988715e+00 2.3771472403106086e+00 0 0 0
2992 1 1.6969932605377389e+00 4.7354317142373130e+00 2.1744917492933600e+00 1 0 0
3950 2 1.2960758289676319e-01 4.7529521197031519e+00 2.5061952322614567e+00 1 1 0
287 1 2.5705888513439485e+00 3.1706851253880335e+00 3.1702624109826441e+00 0 1 0
4176 2 2.4596167330106380e+00 5.2303963002866727e+00 2.0588590685820534e+00 1 0 0
2710 1 8.8109324755378648e-01 5.6289216305561851e+00 2.0812330817314000e+00 1 0 1
196 1 1.9197447346238692e+00 5.8729283657152989e+00 2.4154413113520024e+00 0 0 0
124 1 2.4038836751349528e+00 5.0190109618393652e+00 2.9363320715041934e+00 0 0 0
281 1 1.0316279824459933e+00 6.2795434663173744e+00 2.9476200333892608e+00 0 0 0
3457 2 1.3178686982094883e+00 5.2446586462448046e+00 2.7770849553747312e+00 0 0 0
3104 1 4.5002373268715506e-01 5.4038441917864466e+00 2.9979915684818579e+00 1 0 0
308 1 8.7218632330643431e-01 1.2503911666367851e-01 2.6585298410300733e+00 0 1 0
84 1 2.6078247982374436e+00 6.6568464635355511e+00 9.7436034443996136e-02 0 0 0
3081 1 3.6887076484852666e-01 6.7222685423536390e+00 1.9850552392277812e+00 1 0 0
800 1 1.5749509444230017e+00 6.8811721422607395e+00 2.0619488888065880e+00 0 0 0
2158 1 9.2193328592555723e-01 7.4526769543709186e+00 2.5912218151223172e+00 1 0 1
24 1 2.0024783508051849e+00 7.6978363539947496e+00 2.7874242062079446e+00 0 0 0
554 1 2.2221110738494141e+00 6.6560860404698072e+00 3.0058275878361083e+00 0 0 0
3252 1 1.4510892884905500e+00 8.1241297693387882e+00 1.8925414663172200e+00 1 0 0
3636 2 1.4412589587704294e+00 7.0218352006700622e+00 3.1697361994132196e+00 0 0 1
3387 1 1.5229594740698384e+00 9.5950542754381338e+00 2.7561622751198658e+00 1 0 1
342 1 3.9471549773683307e-01 8.2227135367698647e+00 1.9503570909644488e+00 0 0 0
3274 1 1.2343379471137856e+00 9.0959785242005680e+00 1.9032373663654634e+00 1 0 0
3015 1 9.2332678597826456e-01 8.5685679733816009e+00 2.7987688922702647e+00 1 0 0
873 1 2.0855696542397237e+00 8.7780994009438960e+00 2.5446227217059136e+00 0 0 0
4267 2 2.6874718153695123e+00 8.2062817471003164e+00 2.3041732871824170e+00 1 0 0
3660 2 2.7351984697954888e+00 9.2194051278482743e+00 2.0400265360555019e+00 0 0 0
3269 1 9.9942628505901543e-01 8.4863012590415217e+00 4.5145325058399264e+00 1 0 0
3446 1 1.2540145273176966e+00 4.6840144544801526e-01 4.3496986080846805e+00 1 1 0
675 1 4.9872402594752790e-01 5.2203675212634171e-01 3.5810186828097343e+00 0 0 1
4271 2 1.0642031881127050e+00 1.1872351246808306e+00 3.7541321730206758e+00 1 1 0
159 1 3.9430441452006665e-01 1.1249472995955014e+00 4.4176367852716414e+00 0 0 0
942 1 2.0589220887542048e+00 1.1823137010228821e+00 3.8984272476704556e+00 0 1 1
1076 1 2.4677553625067117e+00 4.8279200737767641e-01 4.5039044554688541e+00 0 0 0
592 1 2.4264097999326117e+00 2.3162366700065229e-01 3.4013861943080959e+00 0 0 0
2184 1 4.2822071019282171e-01 1.6976107973413921e+00 3.5911252160788338e+00 1 0 0
4092 2 1.6558516099642223e-01 3.0920980602760513e+00 3.1846396060879658e+00 1 0 0
3507 2 2.1729315962952507e+00 1.8732024329561596e+00 4.3185336278719726e+00 0 0 1
4196 2 5.1969159141384369e-01 1.9894776240761769e+00 4.4417348134682326e+00 1 0 0
4206 2 1.1560670287998482e+00 2.3966671206742336e+00 3.4199185738368931e+00 1 0 0
629 1 1.9935021808702287e+00 2.2200887684080195e+00 3.5167717063941506e+00 0 0 0
777 1 5.0316345328818424e-01 2.7240789129873693e+00 3.9063418394719660e+00 0 1 0
3295 1 1.2933424981455066e+00 1.8620349363449136e+00 4.1699798100678729e+00 1 1 0
981 1 1.6178111413560103e+00 3.0219832743580475e+00 4.0540188926837653e+00 0 1 0
1103 1 2.5953166470828548e+00 2.6675469618313534e+00 4.2662777385784327e+00 0 0 0
44 1 7.5174064779192695e-01 3.4789722332989359e+00 4.6143989403500321e+00 0 0 0
582 1 1.8727997597848520e+00 4.0798336568271845e+00 3.2013119494655626e+00 0 0 0
4289 2 2.2862948721846693e-01 4.1614210299229573e+00 4.5342145348445158e+00 1 1 1
2989 1 5.4739760032974719e-02 3.6948003984334004e+00 3.7833447151068094e+00 1 0 0
567 1 1.0548789201929494e+00 3.3521622564995810e+00 3.2416968102363786e+00 0 0 0
4253 2 1.8747009774358230e+00 4.4604237728573715e+00 4.5977783901052609e+00 1 0 0
521 1 2.4381856597353830e+00 3.8122207535391879e+00 4.0923230624304807e+00 0 0 0
3092 1 1.2878896670606554e+00 4.1023002876746020e+00 4.0304769132655700e+00 1 0 0
3037 1 2.5212096591073538e+00 4.8488089241070549e+00 3.9494433914071685e+00 1 0 0
2725 1 1.0487313115015207e+00 5.3582021303684888e+00 4.6459136005108546e+00 1 0 0
2026 1 3.8625528571772338e-01 4.8447623259773200e+00 4.0065599460532724e+00 1 0 -1
4227 2 2.5596031628789393e+00 5.8510679232304668e+00 3.1852294785769191e+00 1 0 1
38 1 1.4458298566374022e+00 4.9968387312883005e+00 3.7047869523108079e+00 0 0 0
158 1 1.9457081408703045e+00 5.8757646921639406e+00 3.7798567434493027e+00 0 0 1
2599 1 6.5855159832979182e-01 5.9060729062807420e+00 3.8426826455316889e+00 1 0 0
1002 1 2.6572599694866637e+00 3.5900575842467650e+00 1.2445494922603575e+00 0 1 1
2521 1 4.0123331757721892e-01 6.7965766555187939e+00 4.7282115073565025e+00 1 0 0
4083 2 3.6367955974085563e-02 7.4978040586112646e+00 1.5965434037308395e+00 1 0 0
3490 2 8.8422799641537472e-02 4.6375775109237862e+00 8.4737777052647706e-02 0 0 1
626 1 4.2972976974994209e-01 6.9392584185169541e+00 3.6820651662120429e+00 0 0 0
302 1 1.1918518384343850e+00 7.7529536388985987e+00 3.5885415979684518e+00 0 0 0
3034 1 2.2798487847748978e+00 7.4093052916605977e+00 3.7589097131569003e+00 1 0 0
3088 1 1.4432443830626016e+00 6.7461378819481457e+00 3.9782720774193168e+00 1 0 0
4293 2 5.4064405008801653e-01 7.6637626640142864e+00 4.2836689628155442e+00 1 0 1
4096 2 2.4956827976389278e+00 6.5890089585118705e+00 3.8201910577981337e+00 1 0 0
351 1 2.2736602448257819e+00 9.1167646045605899e+00 3.5191755822462447e+00 0 0 0
3257 1 4.6268164680739160e-01 9.4730664799944702e+00 3.1539016057299043e+00 1 0 0
4085 2 1.7493843233242672e+00 8.4358366810197190e+00 3.2823579768042239e+00 1 0 0
3676 2 6.1272434682316590e-01 8.4589608392391220e+00 3.7168046981238101e+00 0 0 0
3204 1 1.8911554233728460e+00 9.3205590261595948e+00 4.4936975993031663e+00 1 0 0
2590 1 1.2654069120333153e+00 9.0552157598835930e+00 3.6619026051726173e+00 1 0 0
319 1 4.2134569822379331e-01 9.3710723170562176e+00 4.2351213840281172e+00 0 0 0
423 1 2.0523513586836057e+00 8.3340556554489353e+00 4.1666505728836380e+00 0 0 0
3485 2 1.0991832933123808e+00 2.6918202302903325e+00 4.7189391164600787e+00 0 0 0
4015 2 7.8952452993223177e-02 5.8754287303788324e+00 2.3494732497002726e+00 1 0 1
1292 1 2.3134526443258032e+00 6.5631511995856275e+00 4.6492931652203842e+00 0 0 0
4243 2 5.1948327588479400e-02 8.4282676994718706e+00 2.6547676067987216e+00 1 0 0
3059 1 2.1006117518811829e+00 5.4643619764301512e+00 4.7287486577597120e+00 1 0 0
717 1 3.2095619416980870e-01 9.4729729483241210e-01 1.5420962600128263e-02 0 0 1
609 1 8.1277978111594529e-01 8.4534547398217375e-01 5.4748366901454446e+00 0 0 0
3748 2 1.7462737965352173e+00 1.0363777062833699e+00 5.6634097720950196e+00 0 0 0
934 1 1.7976532576517532e+00 2.6016004949436572e-01 5.3616401622056831e+00 0 1 0
3145 1 1.1647512423741473e+00 1.4688598450694816e+00 6.2635289684070381e+00 1 0 0
3516 2 4.1933643331356230e-01 6.4774648491419595e-01 6.1772621235211984e+00 0 0 0
3632 2 2.4597487543731305e+00 9.6526922272492435e+00 5.0646659577041193e+00 0 0 0
811 1 2.6224535767615920e+00 8.7051638985482782e-01 5.5107405881035030e+00 0 1 0
346 1 1.7974890478903518e+00 1.2606298152809339e+00 4.8594935630607239e+00 0 1 0
651 1 1.2383446380749188e+00 3.0875873185489283e-01 6.2832057217716875e+00 0 0 0
2902 1 4.9426930580041128e-01 6.9582542313247888e+00 9.4635829696161551e+00 1 0 0
427 1 2.1464527320224600e+00 1.8139214186818851e+00 5.8121608950900185e+00 0 1 0
526 1 1.9135644453602321e+00 2.4948101438162911e+00 5.0246576834265797e+00 0 0 0
362 1 1.0359923161814839e+00 1.9306372740530104e+00 5.2082718854895376e+00 0 1 0
3587 2 1.4288860797026330e+00 2.3537926876931352e+00 5.9274520794889982e+00 0 0 -1
3064 1 5.4893790264086251e-01 2.2425824865721662e+00 6.0025737780180588e+00 1 0 0
744 1 2.0922340157164312e+00 2.9832169422787276e+00 5.9026353138526231e+00 0 0 1
132 1 1.0582610108619983e+00 3.0583740640010846e+00 5.5147572066108843e+00 0 0 0
2956 1 1.3332301826375803e-01 2.7119539960253083e+00 5.0947839858305706e+00 1 1 0
1992 1 1.0230260565400264e+00 8.4392923757143308e+00 9.1510471227547381e+00 1 0 -1
711 1 7.7723039105681324e-01 8.7714718886108667e+00 8.0982819348278010e+00 0 0 0
3089 1 1.4837902164523120e+00 3.8911509565802596e+00 5.9865701469911823e+00 1 0 0
187 1 2.4908960104186071e+00 4.0202985198097405e+00 5.7875549650677103e+00 0 0 0
850 1 1.0413435514803351e+00 4.3640639462082245e+00 5.0770692318527733e+00 0 1 0
729 1 3.5511252703429369e-01 4.0910813944352800e+00 5.8394716731367842e+00 0 0 0
2547 1 1.7482983029058932e+00 3.6038157153499815e+00 4.9688834141621845e+00 1 0 0
1464 1 2.7533871970511834e+00 1.2708745548582914e+00 8.3184722808311022e+00 0 1 0
571 1 1.8455705017285156e+00 4.7733815416747891e+00 5.4973578889622381e+00 0 0 0
3742 2 8.6154733226215718e-01 9.3340601086013653e+00 8.8115286686466767e+00 0 0 -1
136 1 1.2844212444272738e+00 6.3921449610776264e+00 4.9241286350438678e+00 0 0 0
3012 1 2.5720262585996778e+00 5.1295082559155061e+00 6.2190342790505131e+00 1 0 -1
3010 1 7.9082731919366667e-01 5.2306084821605028e+00 5.7889576767368363e+00 1 0 0
3477 2 1.4179002430711238e+00 5.6157460878331635e+00 5.3327321005763633e+00 0 0 0
240 1 3.2507656144688879e-01 5.8799502431572517e+00 5.1670719962978184e+00 0 0 0
596 1 2.1581967481824575e+00 6.0839187296533002e+00 5.5837614914627887e+00 0 0 0
163 1 1.0399100325264878e+00 6.2795035399003618e+00 5.9307835030194287e+00 0 0 0
2676 1 5.9845055424959992e-02 5.9611223927472059e+00 6.2999178137364833e+00 1 0 0
2623 1 8.0217257801553282e-02 3.1850001794763108e+00 6.1669217449893541e+00 1 0 0
3167 1 2.4925051582420630e+00 8.2170294493193499e+00 9.1168749127073845e+00 1 0 0
2245 1 9.8157026134111702e-02 7.8592329895952862e+00 5.2316494711257482e+00 1 0 0
23 1 1.8576654930780756e+00 7.0149452610395997e+00 5.5586803863998799e+00 0 0 0
167 1 8.3667057806940293e-01 7.2855514499687626e+00 5.6242807102851247e+00 0 0 0
161 1 2.5550843971423811e+00 8.0219203979328508e+00 5.7867445098658230e+00 0 0 0
3404 1 1.4958882633528656e+00 7.9469817754443417e+00 6.1490725060776059e+00 1 0 0
3563 2 1.0628605647422171e+00 8.0331333325279726e+00 5.3073381705309783e+00 0 0 0
3373 1 2.8100485773492401e-01 7.6237480092279908e+00 6.4263844957885272e+00 1 0 0
2538 1 8.2285177949176155e-02 9.5740115854074119e+00 5.7579353761723961e+00 1 0 0
3893 2 1.8255779715939099e-01 8.8165095686850528e+00 5.0228354153377746e+00 0 0 0
212 1 1.8333095449193957e+00 8.5275297160557102e+00 5.1938804918038546e+00 0 0 0
959 1 2.2309166211901719e+00 9.1989286063369029e+00 5.8102705153167014e+00 0 0 0
3071 1 9.6061981281351627e-01 9.2091742287689833e+00 5.1927869103950268e+00 1 0 0
445 1 5.3954894793380404e-01 8.5392152513876205e+00 5.9466420273470684e+00 0 0 0
3506 2 1.3941498307459539e+00 8.7834022825601945e+00 6.0158484769371530e+00 0 0 0
4180 2 4.0947028698824589e-01 9.2058927654398737e+00 6.4885313296119351e+00 1 0 0
3664 2 2.1902334361368494e+00 2.5301497287159618e-02 6.9385714455492078e+00 0 1 0
456 1 2.1103707894710766e+00 8.4145864461770137e-01 6.4794421308338812e+00 0 1 0
4320 2 5.7628657694644114e-01 1.2128529262723006e-02 7.6464355362266669e+00 1 1 0
141 1 6.6573411388295578e-01 8.1177921967555700e-01 7.0002683805404136e+00 0 0 0
340 1 1.5736634639358797e+00 1.2587030887776498e+00 7.3047058488173420e+00 0 1 -1
3696 2 5.3436103511187838e-01 1.3151670590123885e+00 7.7850718844715558e+00 0 1 0
683 1 2.4923218771537341e+00 6.2114388723128322e-01 7.4960410210837445e+00 0 0 0
817 1 1.4446112937434665e+00 2.1365097438701594e-01 7.3164945935250820e+00 0 1 0
464 1 1.5762769337203149e+00 6.6347818032554571e+00 9.5368039753794616e+00 0 0 0
754 1 1.7157209358131891e+00 8.1915858610783818e+00 8.4257365154090067e+00 0 0 0
61 1 2.5355678976478084e+00 1.7351579758864979e+00 7.4290041233901283e+00 0 0 0
41 1 1.1702936303869478e+00 2.8765626670707749e+00 6.5639002119624363e+00 0 0 0
65 1 7.5828967237677214e-01 1.8689158980608083e+00 7.1385585243161129e+00 0 0 -1
82 1 1.8150268090613451e+00 2.1302151307977271e+00 6.8836584490881156e+00 0 0 0
547 1 1.1972879602776283e+00 2.6979432669365027e+00 7.6590532028848735e+00 0 0 0
3735 2 1.8796221469491936e+00 2.9407846082008873e+00 7.1486565815543512e+00 0 0 0
637 1 1.8983939128178437e-01 2.1695541907329798e+00 7.9317947214725484e+00 0 0 -1
689 1 2.6938271777520826e+00 2.7596906211007290e+00 7.4648973503192186e+00 0 0 0
119 1 3.6706506403022998e-01 3.2098963572997565e+00 7.2914910002920816e+00 0 0 0
664 1 2.5111447168452794e+00 3.4978835807445332e+00 6.7089120000013605e+00 0 0 0
4222 2 7.9226340201046708e-01 3.6660437127728573e+00 6.4826851265204644e+00 1 0 0
139 1 8.3739307609452418e-01 4.5836216677991164e+00 6.6060810963200449e+00 0 0 0
732 1 1.9660337452051204e+00 4.4953977481620244e+00 6.7489515728417713e+00 0 0 0
699 1 1.4356337173329876e+00 3.7128793620815816e+00 7.0947399154098303e+00 0 0 0
4236 2 2.2890287495212585e+00 3.9795293917984140e+00 7.4714674743470502e+00 1 0 0
231 1 5.2339523903656371e-01 4.2322639766145391e+00 7.6636716460764003e+00 0 0 0
3895 2 1.0435017792558776e+00 3.6118706418011506e+00 7.8896180187438203e+00 1 0 0
3175 1 1.5588929581557922e+00 4.4219304304574640e+00 7.8426949057942110e+00 1 0 0
2266 1 3.2436723810285228e-02 1.5562637315522674e+00 5.2849120813158628e+00 1 1 0
733 1 2.6913520609298067e+00 5.7058818591196152e+00 7.0187641542774637e+00 0 0 0
586 1 1.6076323497412988e+00 5.5105318185868652e+00 6.4750629489553715e+00 0 0 0
3762 2 6.5673385632218761e-01 5.4611562900266417e+00 6.5951160607449344e+00 0 0 0
4120 2 1.9733398932564425e+00 5.1558270194810447e+00 7.3452730142652234e+00 1 0 -1
3005 1 1.0842769311489684e+00 5.2051647005484494e+00 7.4004598914577597e+00 1 0 -1
138 1 8.7459120991436912e-01 6.2104146952132711e+00 7.0234828813229386e+00 0 0 0
166 1 1.8399913932183656e+00 6.0901909105070349e+00 7.4165989426462957e+00 0 0 0
759 1 3.7064230051038227e-01 5.9030494104983715e+00 7.8519826019741483e+00 0 0 0
402 1 2.4952684931355269e+00 7.5797608325210701e+00 4.8320969866173149e+00 0 0 0
3461 2 4.8512850170493804e-01 6.7608564728629945e+00 6.3384853872847842e+00 0 0 -1
3522 2 2.2025867511733850e+00 7.4168743435634035e+00 6.3415823877268052e+00 0 0 0
3182 1 2.2151745022939329e+00 6.5710575042509847e+00 6.5436039711759708e+00 1 0 0
192 1 1.2795969138965915e+00 7.0937949334733821e+00 6.6196865214833487e+00 0 0 0
3732 2 1.7948649078519998e+00 6.9199672859631338e+00 7.2804671008908315e+00 0 0 0
3280 1 3.7492455771026217e-01 7.0922600632709019e+00 7.2359007269691151e+00 1 0 0
88 1 2.5005217288538830e+00 6.8704417027909450e+00 7.7578238042735315e+00 0 0 -1
3030 1 1.7589973649096875e+00 7.8176921841309044e+00 7.3213936403477256e+00 1 0 -1
221 1 8.3497024057779079e-01 7.7941364454263633e+00 7.8902167095666869e+00 0 0 0
4103 2 8.6485600820444153e-01 7.8381753859794285e+00 6.9111280074344590e+00 1 0 0
647 1 2.5787844174112853e+00 7.9229958285156048e+00 8.0080026050250641e+00 0 0 0
3286 1 2.0851339447795487e+00 8.5505727224996946e+00 6.6707345531608517e+00 1 0 -1
1382 1 1.0810473474479021e+00 8.7424614349264171e+00 6.8182417998756311e+00 0 0 0
434 1 1.7998810943896550e+00 8.9778415419730209e+00 7.7259681421930768e+00 0 0 0
273 1 5.0831527735133897e-01 9.4283856630941987e+00 7.3234910391644377e+00 0 0 -1
3113 1 1.9139801163748899e-01 8.3790763246852098e+00 7.2865327444501728e+00 1 0 0
3022 1 9.1162269718128061e-02 9.0058711492356061e+00 9.1453238960416261e+00 1 0 -1
3835 2 1.9938064583759736e+00 1.5078101052113293e+00 8.0538036324285915e+00 0 1 0
416 1 1.0671119615643168e+00 8.5647769266137463e-01 8.1935762589732057e+00 0 1 0
990 1 2.0494301930955845e+00 4.9334507652798060e-01 8.5173102405066121e+00 0 1 0
254 1 2.9007485131838517e-01 1.4510413561607267e+00 8.6787575558471044e+00 0 0 0
387 1 1.2739006956471519e+00 8.0763709752428825e-01 9.1962730769014751e+00 0 1 0
3663 2 5.0909252919330339e-01 5.6534032556732161e-01 8.8406486872014138e+00 0 1 0
3224 1 2.0487214182197557e+00 1.5302927455848989e+00 9.0168965323019421e+00 1 1 -1
74 1 1.7080057489856173e+00 9.1773009533443624e+00 8.8189638583107666e+00 0 0 -1
418 1 1.2348200209815059e+00 1.8408999686858381e+00 8.2978884464678995e+00 0 1 0
214 1 2.2075065127236826e+00 2.2956041251626713e+00 8.2814047829796067e+00 0 0 0
277 1 9.5735993295904431e-01 1.9776928345116664e+00 9.4157654253941399e+00 0 1 -1
389 1 2.3318006751097951e+00 2.5233042690540755e+00 9.3015445777250196e+00 0 1 0
4245 2 4.7239289116182592e-01 2.3477028647112856e+00 8.7683090115108087e+00 1 1 -1
500 1 1.2495887424535790e+00 2.7988990738827884e+00 8.7592084955300162e+00 0 1 0
227 1 4.3857435326281663e-01 2.9336216428989834e+00 9.4950841903334577e+00 0 0 0
739 1 4.0625500559931005e-01 3.1636789346090173e+00 8.3615023872143492e+00 0 0 0
305 1 1.8628758590585441e+00 3.4265843170318444e+00 8.0352942614165919e+00 0 1 -1
43 1 8.6320757297624298e-02 4.1795545704330186e+00 8.9624780648693356e+00 0 0 -1
2516 1 1.9599973181364054e+00 3.4594102388628021e+00 9.1534669726991265e+00 1 0 -1
1482 1 1.0598852613911898e+00 3.9725120877225688e+00 8.7571375872559134e+00 0 1 0
668 1 2.4276988171255809e+00 4.2119258361435916e+00 8.4331004496819411e+00 0 0 0
704 1 1.7569389814168734e+00 4.5100806223839385e+00 9.2293285026594916e+00 0 0 0
3759 2 2.4014965825824928e+00 5.0244673989005149e+00 9.0259637290803703e+00 0 0 0
2587 1 8.9540657485633068e-01 5.0722521510659124e+00 8.5258093895684333e+00 1 0 -1
3481 2 1.2268074437599672e+00 5.8232230760107422e+00 8.0267466932675493e+00 0 0 0
710 1 1.6608719828094496e+00 5.5734382403181026e+00 9.3487167736279506e+00 0 0 0
3171 1 7.6466358551780433e-01 6.1459920083970951e+00 8.8039527309686232e+00 1 0 0
49 1 1.9103300504378402e+00 5.3078418084742989e+00 8.3833591221918429e+00 0 0 -1
2654 1 1.9278018945715329e+00 6.3037910203652210e+00 8.5887526752163623e+00 1 0 0
120 1 2.5935661659288254e+00 9.1752809349572217e+00 9.4242750421526118e+00 0 0 -1
4094 2 1.7045736650307672e+00 7.8911994196997606e+00 9.2977523733022931e+00 1 0 -1
3340 1 1.2823930512982896e-02 5.5726889849985073e-01 8.0525956343609444e+00 1 1 0
575 1 1.1887143343451149e-01 4.8616140331751589e+00 5.0479130299221113e+00 0 0 0
405 1 2.6638860197286345e+00 8.9852450765785896e+00 8.3653128667483294e+00 0 0 0
64 1 1.1326506755501484e+00 6.7440151118076734e+00 7.9808569796998139e+00 0 0 -1
125 1 2.2099248150787352e+00 7.2450000945740607e+00 8.9052971646372221e+00 0 0 0
3164 1 1.8922199013056198e-01 7.1876111919220600e+00 8.4707005887118854e+00 1 0 0
3482 2 1.8673783836557529e+00 7.3522953810821008e+00 8.0753492031029115e+00 0 0 -1
3003 1 1.1836164459711609e+00 7.4074427541770298e+00 8.8382195844703659e+00 1 0 -1
662 1 2.7039278957722277e+00 4.7483742469048362e+00 7.5187437005592033e+00 0 0 0
3156 1 1.3941393663722049e-01 7.9158811395336350e+00 9.4348817094525330e+00 1 0 0
2794 1 6.1563043164695345e-02 5.3356630999457506e+00 9.1361815801759043e+00 1 0 -1
3141 1 2.0593939156761225e+00 9.6118971926467403e+00 6.8980012171037979e+00 1 0 0
112 1 2.2175931222776057e-02 1.3397455898517727e+00 6.3380069885459998e+00 0 0 0
92 1 7.9340778276062451e-03 4.0466686458166636e+00 6.8012066642871263e+00 0 0 0
3177 1 1.1644576794520289e+00 9.6247837315311049e+00 6.1887837390269231e+00 1 0 0
831 1 9.2200587834384251e-01 4.9396958434646709e+00 9.6548923286929220e+00 0 1 0
2754 1 8.1982262194690092e-01 1.0398717538886913e+01 5.6846614363968506e-01 1 0 0
316 1 2.3831862521727896e+00 1.0269985448462526e+01 9.7860623373526290e-01 0 0 0
3594 2 1.6474925177531481e+00 1.0522042260551730e+01 6.5301725224517204e-01 0 0 0
4249 2 4.6316400600900287e-01 1.0362777825595529e+01 1.3703495124680907e+00 1 0 0
97 1 1.4023551995033694e+00 1.0579003931684520e+01 1.5171839969450864e+00 0 0 0
411 1 1.2999536335111785e+00 1.8815574687399980e+01 4.8084035480341063e+00 0 0 0
3318 1 6.5179402725461766e-01 1.1060638286764870e+01 4.7128404282618472e+00 1 0 0
1561 1 2.7423366203574200e+00 1.1294442471412168e+01 4.4317981648795310e+00 0 0 0
276 1 6.2703137100080641e-01 1.1478908010923623e+01 8.7043490238713261e-01 0 0 0
769 1 1.7157297662811692e+00 1.1416562381906877e+01 9.4878111105975715e-01 0 0 0
3597 2 1.6587503736839941e+00 1.2316981561326324e+01 1.0528061893726723e+00 0 0 0
68 1 2.3845784883274557e+00 1.2188784841492868e+01 5.3933816784246691e-01 0 0 0
806 1 1.3350948957919093e+00 1.2139216544019334e+01 2.1211002818860805e-01 0 0 0
810 1 8.5813205446008456e-01 1.7960765669822756e+01 4.2569108648686349e+00 0 0 0
949 1 8.0591978381706186e-01 1.2825480814191591e+01 9.4887906966007984e-01 0 0 1
452 1 2.2289345982934714e+00 1.5701986514194212e+01 1.8492926343811011e-01 0 0 1
2827 1 1.4373286489020531e-01 1.3608040718460362e+01 6.8409371532077445e-01 1 0 0
1405 1 1.8894484878319697e+00 1.3036125540102486e+01 5.2880461431628434e-01 0 0 1
3316 1 1.1858783518316101e+00 1.3893596594171889e+01 5.7095344442784246e-01 1 0 0
1444 1 1.8394920700839150e+00 1.3888426178477459e+01 1.4082851103938938e+00 0 0 1
306 1 7.5472405227892780e-01 1.3691550284143730e+01 1.5251060475249676e+00 0 0 0
3362 1 5.1131269376362490e-02 1.2798021431642026e+01 1.6545068831508312e+00 1 0 1
3270 1 2.5267609043865655e+00 1.2963092100594393e+01 1.4071533770524332e+00 1 0 0
454 1 2.7192078916013021e+00 1.5543169731096379e+01 1.1265381146866171e+00 0 0 1
836 1 2.8894167219854783e-01 1.5725112749444852e+01 1.1872535354963567e+00 0 0 0
3296 1 4.4195660909237161e-01 1.4735600467134530e+01 5.1756015774362174e-01 1 0 0
450 1 2.0648221695444935e+00 1.4794453225591811e+01 8.6472486124948866e-01 0 0 1
971 1 1.2060481265918210e+00 1.5583175912428135e+01 5.8316747181572637e-01 0 0 1
3545 2 1.9441232358918235e+00 1.5396829248628233e+01 1.4478288784154945e+00 0 0 0
1187 1 1.2464009103566018e+00 1.4879721838172825e+01 1.4086342974784143e+00 0 0 1
3302 1 1.4901621884002725e-01 1.4602303201645444e+01 1.4996687566155271e+00 1 0 0
332 1 2.3777124048660285e+00 1.8776872534756215e+01 4.6904239401232868e+00 0 0 0
1473 1 1.2843385280290109e+00 1.5825213926902721e+01 1.7015278380021981e+00 0 0 1
4028 2 9.2648873360454254e-01 1.6399695903178014e+01 1.1315710151256186e+00 0 0 0
314 1 1.8256143926210895e+00 1.6333468473021661e+01 1.0334104766857486e+00 0 0 0
2707 1 2.0884153495036764e-01 1.6860655307290919e+01 1.3226358850489293e+00 1 -1 0
3238 1 5.5044331165793148e-01 1.6499000115349826e+01 3.8978983435096703e-01 1 0 0
799 1 2.1738113262775518e+00 1.7301422038423020e+01 6.7938253759738787e-01 0 0 0
779 1 1.1851167809162981e+00 1.7193799540516192e+01 8.1583664543202994e-01 0 0 1
284 1 2.1735993548503643e-01 1.7332610377959604e+01 4.7573634503285005e+00 0 0 0
272 1 1.4304034136647148e-01 1.7545230584693652e+01 4.1382939596727714e-01 0 0 0
753 1 1.5007589405440140e+00 1.8050813978410272e+01 3.2875476501152429e-01 0 -1 1
482 1 5.1247511835266735e-01 1.8503975246397985e+01 5.6157826298651115e-01 0 0 0
857 1 1.3680597854691643e+00 1.8743459955801836e+01 1.0625993519048971e+00 0 0 0
300 1 2.3879529050729360e+00 1.8580596967318076e+01 8.8799919898936674e-01 0 0 0
378 1 7.7233025403788746e-01 1.7899390525377104e+01 1.5438095284598623e+00 0 0 0
455 1 5.9646397836246667e-01 1.9237576569103926e+01 1.4519739693174121e+00 0 0 1
345 1 1.8170851474013525e+00 1.7861550089549404e+01 1.4909516350349488e+00 0 0 0
390 1 1.7408057898595015e+00 1.9217549998835644e+01 2.2209703787359891e-01 0 0 1
485 1 2.6581382805734637e+00 1.4711074550527645e+01 4.7146856782773110e+00 0 0 0