ITEM: TIMESTEP
59400
ITEM: NUMBER OF ATOMS
4320
ITEM: BOX BOUNDS xy xz yz pp pp pp 
0 19.4838 0.17379
0 19.31 0
0 9.655 0
ITEM: ATOMS id type x y z ix iy iz flow_delta_displacement grad_box_change 
3128 1 0.652759 0.910961 0.375377 1 0 1 0.000395855 0 
712 1 1.13636 1.11394 1.18709 0 0 0 0.000485212 0 
3695 2 2.88976 0.590527 4.50158 0 1 -1 0.00249159 0 
216 1 1.72682 0.610756 0.474632 0 0 1 -0.000738899 0 
573 1 2.63684 0.824446 1.0611 0 0 0 -0.000220468 0 
64 1 0.759906 4.37781 4.66098 0 0 0 -0.000686437 0 
380 1 1.18545 0.420413 4.63164 0 1 0 -0.000247361 0 
3933 2 3.45083 0.577402 1.10056 0 1 0 0.00104226 0 
1461 1 4.29977 0.642413 0.954344 0 1 1 -0.000209239 0 
1017 1 3.42752 0.900206 0.259245 0 1 1 0.000549112 0 
609 1 3.68059 1.40095 1.31977 0 0 0 -0.000520306 0 
1178 1 3.88873 0.535026 1.94557 0 0 1 -0.00219033 0 
3072 1 0.876591 1.93017 0.530219 1 0 0 0.000807137 0 
2596 1 0.462432 2.77104 1.09945 1 0 0 -0.000839238 0 
527 1 1.44397 2.31835 1.3942 0 1 1 0.000617875 0 
3590 2 2.21329 4.07353 3.65616 0 0 0 -0.00115044 0 
2754 1 0.0840013 0.467053 3.25959 1 1 0 7.38111e-05 0 
3111 1 1.89929 1.67983 0.602273 1 0 1 0.000530118 0 
4115 2 1.52182 2.50989 0.360991 1 0 1 -0.000723273 0 
1031 1 2.92404 1.78854 0.658148 0 0 0 -0.000608006 0 
252 1 2.37252 2.6597 0.877245 0 0 1 -0.000656227 0 
3162 1 2.21504 1.71469 1.6379 1 0 1 -0.00138324 0 
611 1 4.06101 1.74862 0.263898 0 0 0 -0.00056132 0 
1033 1 3.62002 2.47203 1.04549 0 0 0 0.000147854 0 
546 1 4.35075 2.83645 0.218503 0 0 0 8.80736e-05 0 
273 1 4.56963 2.18549 1.03491 0 0 1 -0.000501094 0 
1032 1 4.61672 4.58727 2.38233 0 0 0 -0.000945807 0 
3625 2 0.57638 3.51815 0.750658 0 0 1 -0.00155958 0 
2992 1 0.355846 4.54124 0.76576 1 0 0 -0.00100954 0 
2495 1 1.372 4.42843 1.12442 1 0 0 -0.00037518 0 
2636 1 1.11923 4.07619 0.147023 1 0 1 -0.00230163 0 
2696 1 1.41293 3.30132 0.930055 1 0 1 -0.000691334 0 
831 1 0.0491063 0.223083 4.36465 0 1 0 -0.000877394 0 
3143 1 2.32201 3.88524 0.750076 1 0 1 -0.000212327 0 
3158 1 4.3971 3.2199 1.20658 1 0 1 3.34853e-05 0 
1141 1 3.26374 4.31366 1.28837 0 0 0 -0.000515158 0 
3491 2 3.82879 4.4236 0.650436 0 0 0 -0.000764807 0 
97 1 3.39862 3.57635 0.592866 0 0 0 -0.000153126 0 
742 1 4.40861 3.91167 0.33162 0 0 1 -0.000575379 0 
768 1 4.47638 4.39083 1.34183 0 0 1 4.05868e-07 0 
976 1 0.197239 1.07159 2.36458 0 1 1 0.00130909 0 
3411 1 0.826342 0.368099 1.96766 1 1 1 0.000803066 0 
436 1 1.07369 0.672388 2.88472 0 1 0 0.000375966 0 
675 1 1.46309 1.34366 2.22688 0 0 1 -1.53e-05 0 
360 1 1.90177 0.454907 1.78367 0 1 0 0.00113511 0 
944 1 2.26758 0.834764 2.74271 0 1 1 0.00171508 0 
1180 1 3.03604 1.05005 2.02511 0 0 1 0.000322812 0 
3920 2 3.19967 1.18365 2.90804 0 1 -1 0.00146458 0 
763 1 3.86319 4.17328 4.13758 0 0 1 -3.96467e-05 0 
149 1 3.05278 4.6088 0.256261 0 0 1 -0.000309994 0 
1245 1 3.91352 1.43109 2.45331 0 0 0 -0.000439487 0 
12 1 3.947 0.560694 3.00529 0 0 0 -0.00187492 0 
102 1 2.95509 3.45714 3.4391 0 0 0 0.000270672 0 
3020 1 0.61833 1.83631 1.7815 1 0 0 -0.000276109 0 
384 1 0.322598 2.96015 2.35457 0 1 0 0.000721336 0 
465 1 0.761404 1.93437 2.78507 0 1 1 0.00121845 0 
3709 2 1.10089 3.09234 1.69957 0 0 0 -0.000698443 0 
254 1 1.47932 2.71927 2.42807 0 0 1 -0.0009844 0 
4188 2 0.139553 2.55204 3.1444 1 1 0 0.000875647 0 
567 1 2.34269 1.8831 2.69621 0 0 0 -0.000345624 0 
4064 2 2.18409 2.73802 1.74916 0 0 1 -0.000436499 0 
427 1 2.43077 3.03111 2.57242 0 1 0 -0.000306373 0 
3121 1 3.01171 2.32685 2.00288 1 0 1 -0.0012879 0 
1778 1 4.09323 2.30758 2.01354 0 1 0 0.000896598 0 
607 1 3.32462 2.16815 2.97581 0 0 0 0.000128484 0 
3703 2 3.65812 3.058 1.77803 0 0 0 -0.000480018 0 
646 1 3.58733 3.06303 2.65217 0 0 0 -0.00105761 0 
367 1 4.3596 2.35406 3.15896 0 1 0 0.00145755 0 
1992 1 4.60392 3.09078 2.35899 0 0 0 -0.000448315 0 
3868 2 4.67955 3.80955 2.82442 0 0 1 0.00024271 0 
1300 1 0.672308 3.82031 1.56984 0 1 0 0.000973765 0 
2981 1 0.585641 4.68524 2.66714 1 0 0 -0.000369349 0 
499 1 1.11858 3.69983 2.57645 0 0 0 -0.0004452 0 
3476 2 1.3106 4.42995 2.03716 0 0 0 -0.00139939 0 
47 1 2.82768 3.34089 1.54831 0 0 0 -0.000670088 0 
114 1 2.19474 4.65112 1.72373 0 0 0 -0.000887535 0 
500 1 1.80584 3.67336 1.82521 0 1 1 9.56364e-05 0 
614 1 1.88996 4.34997 2.72778 0 0 0 -0.00127023 0 
58 1 2.92166 3.95793 2.45143 0 0 0 -0.00026269 0 
1426 1 4.80159 1.40477 3.11411 0 1 0 0.000621315 0 
81 1 1.05711 1.53925 4.77186 0 0 0 -0.00159374 0 
261 1 3.82914 4.08458 3.10026 0 0 0 -0.000643705 0 
275 1 3.90436 3.91152 2.04634 0 0 1 -0.00122585 0 
3089 1 0.827167 2.99836 0.100402 1 0 0 -0.00137043 0 
4290 2 2.14015 0.0256507 1.03528 1 1 1 0.000531102 1 
2536 1 0.0706338 3.81714 0.0990261 1 0 0 -0.00145312 0 
873 1 0.832524 1.06458 3.84553 0 1 0 0.000774641 0 
906 1 4.60457 0.0215584 3.8619 0 1 0 0.000216234 0 
881 1 2.96862 0.582606 3.4859 0 1 0 7.97891e-05 0 
664 1 4.01884 3.03077 4.78849 0 0 0 -0.00101895 0 
861 1 1.653 1.36144 3.38902 0 1 0 0.0022624 0 
657 1 2.08363 1.12552 4.43252 0 0 1 -0.000951403 0 
506 1 1.90693 0.294395 3.71631 0 1 0 2.13732e-05 0 
116 1 2.70494 1.56528 3.57687 0 0 0 0.000199144 0 
4198 2 3.04815 4.8024 2.01746 1 0 0 0.000307092 0 
4222 2 3.31516 3.43867 4.43425 1 0 -1 -0.000255881 0 
825 1 3.12172 1.39715 4.49673 0 1 0 -0.000917771 0 
977 1 3.76328 0.544737 4.29763 0 1 0 0.00207924 0 
892 1 3.83832 1.41831 3.55066 0 1 0 0.00170104 0 
1295 1 4.78689 4.31924 3.4621 0 1 0 0.000574989 0 
1576 1 0.921528 2.91462 3.28057 0 0 0 0.00060022 0 
762 1 0.375131 1.96807 3.87238 0 0 0 -0.00103332 0 
631 1 1.43044 2.2155 4.06109 0 0 0 -0.000192951 0 
3465 2 1.53518 2.26174 3.18384 0 0 0 -0.000558061 0 
240 1 2.20305 3.24721 4.30448 0 0 0 -0.000852792 0 
3055 1 2.28996 2.51613 3.57263 1 0 0 -0.00152938 0 
336 1 2.43838 2.1645 4.70711 0 1 0 -0.000440769 0 
2048 1 4.07374 3.1797 3.71007 0 0 0 -0.00036999 0 
778 1 3.21589 2.64342 4.10507 0 0 1 -0.00157478 0 
1152 1 4.1024 2.11494 4.31874 0 0 1 -0.00158687 0 
874 1 0.268738 3.80953 3.17805 0 1 0 0.00133057 0 
71 1 1.18658 3.30211 4.31937 0 0 0 -8.52221e-05 0 
594 1 4.79837 1.097 4.11046 0 0 0 0.00142309 0 
1815 1 4.67304 1.26947 1.64527 0 1 0 3.63991e-06 0 
2555 1 1.20125 4.23983 3.58658 1 0 0 -0.000325426 0 
3507 2 0.537991 3.86708 4.02278 0 0 1 0.000434054 0 
17 1 1.74898 4.18965 4.4481 0 0 0 -0.000983384 0 
3065 1 2.78982 4.16034 4.37101 1 0 0 -0.000722068 0 
26 1 3.00355 4.62902 3.33556 0 0 0 -5.98827e-05 0 
3179 1 1.80268 3.41239 3.29214 1 0 0 -0.0010557 0 
599 1 0.399202 4.7847 3.82149 0 0 0 0.00027601 0 
4116 2 4.5829 0.887853 2.40486 1 0 0 -0.000576134 0 
3300 1 0.26126 0.0329237 1.07614 1 1 0 0.000890683 0 
4204 2 0.0545724 1.48153 3.24981 1 0 0 -0.000479959 0 
3678 2 2.61697 0.156003 2.18455 0 1 0 0.00114139 0 
44 1 3.28804 2.67417 0.0721708 0 0 1 0.00103112 0 
3172 1 0.261341 3.4509 4.79723 1 0 0 -0.000283717 0 
789 1 0.486039 2.46454 4.78758 0 0 0 -0.000993594 0 
3673 2 4.17097 0.463852 0.0527799 0 1 0 0.00119339 0 
3340 1 0.647467 0.552112 5.50436 1 1 0 -0.000383603 0 
263 1 1.16297 0.939212 6.4524 0 0 0 -0.000779009 0 
124 1 3.63816 3.52474 9.34421 0 0 0 0.000203959 0 
4088 2 2.75282 3.71636 9.57694 1 0 0 -0.000362453 0 
280 1 0.265826 3.63946 7.87591 0 0 0 -0.000412592 0 
879 1 1.60763 0.883325 5.49659 0 1 0 -0.00147513 0 
1040 1 2.73287 1.33626 5.39226 0 0 0 -0.00101825 0 
3135 1 2.52221 0.333833 5.84497 1 0 0 -0.00170015 0 
3474 2 1.783 0.415441 6.31383 0 0 0 -0.00143745 0 
3498 2 3.10063 0.902504 6.18229 0 0 0 0.000316832 0 
582 1 2.26956 1.2474 6.34755 0 0 0 0.000111112 0 
1137 1 4.84531 2.14035 9.27577 0 0 0 -0.000119814 0 
863 1 3.48558 0.587061 5.40802 0 1 0 0.000642675 0 
682 1 3.93926 0.927242 6.33157 0 0 0 0.000158384 0 
1459 1 4.17947 1.30505 4.94693 0 1 0 0.000390137 0 
4229 2 3.87589 1.5514 5.70311 1 1 0 0.00296495 0 
3888 2 4.4937 4.5829 8.15575 0 0 0 -0.000249061 0 
3127 1 0.370912 1.74388 5.78407 1 0 0 -0.000609395 0 
3570 2 0.763498 2.48053 5.62915 0 1 0 0.000781881 0 
730 1 1.47182 1.94969 6.06798 0 0 0 0.000576249 0 
572 1 2.51708 4.82075 8.11419 0 0 -1 0.0012291 0 
1016 1 1.49477 2.50155 5.16711 0 1 1 0.000456988 0 
1008 1 1.66364 2.93376 6.11645 0 1 0 0.00109074 0 
3557 2 1.86969 1.74544 5.16007 0 1 0 0.000497136 0 
1053 1 2.4255 2.26063 5.7014 0 0 0 -0.00081194 0 
602 1 3.00672 3.07 5.1323 0 0 0 -0.000405571 0 
253 1 2.70974 3.25928 6.19381 0 0 0 -0.00115791 0 
3469 2 2.15839 3.16807 5.39306 0 0 0 -0.000348452 0 
740 1 3.2018 1.79541 6.19002 0 0 0 -0.000595467 0 
3675 2 3.32428 2.64435 5.92246 0 1 0 0.000812677 0 
1206 1 4.15335 2.36115 6.04163 0 0 1 -0.00208753 0 
1573 1 3.47641 2.11758 5.20046 0 0 0 -0.001153 0 
3687 2 0.427102 2.26507 9.54678 0 0 0 0.000487182 0 
3481 2 3.35856 3.41797 8.42313 0 0 0 0.000700958 0 
3186 1 2.06513 0.259846 9.10004 1 0 0 -0.000210692 0 
623 1 0.522954 3.31698 5.88204 0 0 0 0.00167626 0 
3457 2 0.416748 4.11231 5.42129 0 0 -1 0.0001501 0 
138 1 1.33972 3.67897 5.28023 0 0 0 0.00144562 0 
2973 1 0.734033 4.32842 6.26791 1 0 0 -0.000356272 0 
126 1 1.54914 4.69548 5.44075 0 0 0 -0.000410235 0 
3036 1 1.40535 0.0283301 7.13186 1 0 0 -0.00131556 0 
590 1 1.71547 3.91557 6.32499 0 0 0 -0.0018535 0 
270 1 2.36349 4.06331 5.29026 0 0 0 -0.00139206 0 
3724 2 4.6092 1.29014 6.84686 0 0 0 -0.00197131 0 
1049 1 3.85128 3.33484 5.93175 0 0 0 -0.000789643 0 
3620 2 3.23194 4.03152 5.96377 0 0 0 -0.00140883 0 
601 1 3.54576 3.98499 5.13542 0 0 0 -0.000382278 0 
1077 1 4.71714 1.48199 5.91814 0 0 0 -0.00118369 0 
647 1 4.55556 3.93857 5.30688 0 0 0 -0.000969473 0 
1105 1 4.76492 3.97548 6.42963 0 0 0 -0.000430568 0 
251 1 2.85089 0.024074 8.3889 0 0 0 3.88437e-05 0 
816 1 0.883345 0.758119 7.62274 0 1 -1 -0.000758073 0 
2990 1 0.201906 1.28624 7.03306 1 0 0 -0.00181996 0 
60 1 0.32285 0.106757 6.96114 0 0 0 -0.000944703 0 
4009 2 0.217317 2.17003 7.2911 1 0 0 0.00013576 0 
4232 2 1.70152 0.889281 7.25545 1 0 1 -0.00102196 0 
464 1 2.40603 0.415296 6.96006 0 1 0 -5.21064e-06 0 
442 1 1.95601 0.371447 7.95399 0 1 0 0.000282004 0 
49 1 2.33865 1.46293 7.45068 0 0 0 -0.000724945 0 
3546 2 2.86483 0.698159 7.83664 0 1 0 0.000985984 0 
3427 1 3.19383 1.022 7.04994 1 1 0 -7.00603e-05 0 
1025 1 4.42254 0.241644 7.00721 0 0 0 0.00019684 0 
106 1 3.96482 0.775944 7.83364 0 0 -1 -0.000418842 0 
3778 2 0.833509 0.0395733 6.24927 0 1 -1 0.000422404 0 
660 1 3.9678 4.5971 9.32082 0 0 0 0.00107025 0 
960 1 3.35153 0.0593794 6.46073 0 1 0 0.000870257 1 
28 1 1.24222 1.72364 7.13547 0 0 0 -0.0019994 0 
241 1 0.66938 2.43344 6.50478 0 0 1 -0.00012552 0 
282 1 0.882148 2.66528 7.66707 0 0 0 0.00052037 0 
3482 2 1.44755 2.54195 6.86183 0 0 -1 -0.000717058 0 
466 1 0.490013 1.67839 7.98054 0 1 0 0.000597881 0 
3466 2 2.21479 4.68292 6.0655 0 0 0 -0.00100115 0 
269 1 1.82791 2.31666 7.75803 0 0 0 -5.7984e-05 0 
2892 1 2.30185 2.33948 6.76714 1 1 0 -0.000139716 0 
419 1 2.79361 2.58697 7.68846 0 1 0 0.000429638 0 
4206 2 3.02798 1.92772 7.06743 1 0 0 -0.00191601 0 
629 1 2.09471 3.26411 7.18258 0 0 0 0.000334894 0 
725 1 3.94388 1.77823 7.03203 0 0 0 -0.00206172 0 
845 1 3.37568 2.67543 6.79411 0 1 0 -0.000220893 0 
653 1 4.1916 2.46237 7.74629 0 0 0 0.000468377 0 
580 1 4.39963 3.09099 6.84223 0 0 0 -0.000825006 0 
1345 1 3.34634 1.74401 7.83042 0 1 -1 0.000834097 0 
969 1 1.01529 3.45054 6.87673 0 1 0 0.00117905 0 
1064 1 0.723254 4.40208 7.25585 0 0 0 -0.000512753 0 
276 1 1.3848 3.63954 7.83814 0 0 0 -0.000842049 0 
3865 2 4.42899 0.746632 5.53424 0 0 1 -0.00114648 0 
223 1 2.69276 4.20169 6.70795 0 0 0 -0.00115964 0 
766 1 1.92679 4.38208 7.28498 0 0 0 0.000478334 0 
287 1 2.6959 3.75136 7.80421 0 1 -1 0.00159457 0 
3835 2 2.96991 3.45628 7.04868 0 0 0 -0.00020354 0 
3528 2 4.64352 1.02616 8.40673 0 1 -1 0.00103023 0 
3611 2 4.40401 3.27371 7.95008 0 0 0 -0.000500307 0 
758 1 3.98576 4.59629 5.91654 0 0 0 -0.00131288 0 
610 1 3.64397 3.33714 7.60369 0 0 0 -0.000339466 0 
424 1 3.73916 3.96633 6.73934 0 1 0 0.000137366 0 
248 1 3.4413 4.45188 7.71315 0 0 0 -0.00127761 0 
204 1 4.52318 4.05549 7.45302 0 0 0 -5.67589e-05 0 
981 1 4.57297 0.208791 4.85499 0 1 0 0.00190494 0 
3518 2 0.761595 0.998379 8.49371 0 0 0 -0.00100459 0 
291 1 0.26677 0.484914 9.11867 0 1 0 0.000416418 0 
3174 1 1.09175 0.228472 8.53011 1 0 0 -0.00171883 0 
1370 1 1.32898 0.968542 9.2269 0 1 0 0.00112802 0 
3194 1 0.370185 1.55171 9.04242 1 0 0 -0.00037982 0 
246 1 1.53537 1.36068 8.20262 0 0 0 -0.00133815 0 
3628 2 4.73316 3.23572 5.94055 0 0 0 -0.00168116 0 
221 1 2.59562 1.0664 8.51503 0 0 0 -0.000296262 0 
3549 2 2.89498 0.449764 9.17773 0 1 0 0.000202611 0 
2531 1 0.0539003 4.80324 9.45898 1 0 -1 -0.000267326 0 
681 1 1.98375 3.86568 8.57421 0 0 0 0.000531334 0 
1438 1 4.46933 0.267103 8.73906 0 1 0 -0.0002302 0 
271 1 3.64674 0.87901 8.88069 0 0 0 -0.00129052 0 
3932 2 3.71701 0.111867 8.40385 0 1 0 7.20823e-05 0 
227 1 1.3383 2.05131 9.21556 0 0 0 0.000356941 0 
3136 1 0.538437 2.5582 8.75086 1 0 0 -0.000212473 0 
3573 2 1.19896 2.18714 8.36162 0 1 -1 0.00119773 0 
3921 2 1.98137 1.47607 8.98019 0 1 -1 0.000664131 0 
288 1 2.25814 0.17772 4.88779 0 1 0 -0.00168722 0 
201 1 2.63352 3.12319 8.83643 0 0 0 -0.000523814 0 
209 1 1.55378 2.84738 8.66302 0 0 0 -0.000510439 0 
3589 2 2.16201 3.14299 8.08186 0 0 -1 -0.000948942 0 
353 1 2.45342 2.03335 8.51985 0 1 0 0.000740942 0 
843 1 3.26495 1.78218 9.166 0 1 0 0.00141332 0 
605 1 4.21152 1.79936 8.56331 0 0 0 -2.20988e-05 0 
1177 1 4.40097 3.0233 8.79137 0 0 0 -0.000617753 0 
1073 1 3.50781 2.6025 8.49946 0 0 0 0.000214576 0 
3815 2 3.95752 2.31703 9.28744 0 0 0 0.000590356 0 
247 1 3.98533 3.95043 8.47034 0 0 0 -0.000727311 0 
2552 1 0.941843 3.64057 8.89368 1 0 -1 0.000289045 0 
3148 1 1.28707 4.64013 8.08908 1 0 -1 0.000967757 0 
3079 1 0.366374 4.48692 8.50762 1 0 -1 0.000969389 0 
3561 2 4.4802 3.81431 9.1252 0 0 0 -0.000249746 0 
162 1 2.98869 4.1344 8.80623 0 0 0 -0.000118232 0 
3883 2 4.40494 2.29028 5.21099 0 0 1 -0.000387922 0 
1052 1 2.04687 4.42077 9.45555 0 0 -1 -0.00202265 0 
885 1 4.72429 1.52686 7.71416 0 1 0 0.000605643 0 
1149 1 4.64358 1.10908 9.30086 0 0 0 -0.000839351 0 
3530 2 4.34474 4.64815 6.74518 0 1 0 0.000382807 0 
142 1 2.31202 2.25452 9.52924 0 0 0 0.000240764 0 
1166 1 3.02768 4.80906 5.75947 0 0 0 -0.000502613 0 
471 1 2.47438 1.12514 9.60547 0 1 0 0.000752353 0 
37 1 1.9607 3.28654 9.61838 0 0 0 -0.000489048 0 
118 1 1.1228 5.26567 0.435705 0 0 0 0.00100026 0 
3702 2 1.521 5.27721 1.36562 0 0 1 0.000302903 0 
732 1 0.947956 6.06017 1.41088 0 0 1 0.000279424 0 
4051 2 0.989276 6.48768 0.543797 1 0 0 0.00013023 0 
4081 2 0.348063 7.56562 4.39714 1 0 0 0.00109295 0 
790 1 1.76429 6.07729 0.760781 0 0 1 -0.000838272 0 
992 1 2.81939 5.94468 0.805446 0 1 1 0.00062588 0 
3907 2 2.99259 5.19608 0.99829 1 1 0 0.00186363 0 
1026 1 4.06656 8.32502 4.57274 0 0 0 0.000730543 0 
205 1 2.21945 5.04483 0.7761 0 0 1 0.000447076 0 
2977 1 3.80389 5.27821 0.895849 1 0 0 -0.000656757 0 
92 1 4.53362 6.07086 0.458205 0 0 0 -5.08063e-05 0 
787 1 4.03146 6.18736 1.27988 0 0 1 0.00210243 0 
1253 1 2.12958 4.99536 3.61742 0 0 0 -0.000956557 0 
1104 1 4.57339 8.73025 2.20278 0 0 0 -0.00254862 0 
188 1 0.699438 7.79436 0.362597 0 0 1 -0.000237326 0 
679 1 0.292991 6.93353 0.975303 0 0 1 0.000313414 0 
780 1 1.28704 7.16405 0.919362 0 0 1 -0.000417941 0 
3029 1 0.476591 7.92357 1.41002 1 0 0 0.000834999 0 
4300 2 1.64339 9.53779 0.14633 1 0 1 -0.000748582 0 
128 1 2.43194 7.01268 0.752595 0 0 0 0.000751202 0 
32 1 3.10724 7.73698 0.211391 0 0 0 0.0019069 0 
3026 1 1.88546 7.72672 0.210054 1 0 0 0.00111394 0 
616 1 2.8453 6.78767 4.76005 0 0 0 -0.000110654 0 
3071 1 1.73534 8.13481 4.24593 1 0 0 -0.000337889 0 
785 1 3.28183 7.44159 1.23935 0 0 1 -0.000117585 0 
555 1 3.37372 6.74121 0.34105 0 0 0 0.000530137 0 
927 1 4.20788 7.28574 0.836948 0 1 1 0.000925704 0 
39 1 0.896983 9.1657 1.1201 0 0 0 0.000209585 0 
701 1 1.38942 8.6849 0.185864 0 0 1 0.00164224 0 
211 1 1.4731 8.29286 1.14754 0 0 1 0.000780991 0 
4053 2 4.08721 5.08218 1.76047 0 0 1 0.000882961 0 
3559 2 0.332336 9.38695 2.7413 0 0 0 0.000545376 0 
152 1 2.57859 8.19653 1.0208 0 0 1 0.000659237 0 
13 1 2.05112 9.21546 0.885432 0 0 0 0.00143156 0 
1143 1 3.07119 9.22725 0.720432 0 0 1 0.000954031 0 
170 1 2.45894 8.6484 3.69894 0 0 0 -0.000975378 0 
3693 2 1.08376 8.55513 3.63101 0 0 1 0.00105672 0 
2660 1 0.270375 5.84697 0.596008 1 0 1 0.0015264 0 
654 1 3.99348 9.36098 4.29263 0 0 0 -8.6496e-05 0 
695 1 3.71609 8.45758 0.862388 0 0 1 0.00053411 0 
796 1 4.17005 9.41587 0.704271 0 0 0 0.000741699 0 
3646 2 4.54676 8.85378 1.2912 0 0 1 -6.34467e-05 0 
1318 1 3.66963 5.04422 2.58212 0 1 0 0.000444025 0 
4174 2 3.25725 8.58908 0.120222 1 0 1 0.00039064 0 
2703 1 0.558634 5.74352 2.51502 1 0 0 -0.00103332 0 
3149 1 1.45957 5.27964 2.24051 1 0 1 -0.000891349 0 
4201 2 1.20428 6.29998 2.20169 1 0 0 5.00871e-05 0 
1118 1 3.5338 8.59623 3.68576 0 0 0 -0.00026636 0 
3210 1 1.19902 5.27858 3.22492 1 0 1 -0.00132192 0 
100 1 2.24629 5.66268 1.66262 0 0 0 -0.000759652 0 
361 1 1.88633 6.17565 2.69897 0 0 0 0.000631067 0 
4273 2 2.70478 6.04699 2.36473 1 1 0 0.00136342 0 
3014 1 2.49456 5.22067 2.61515 1 0 0 0.00026531 0 
411 1 3.26539 5.57788 1.76358 0 1 0 0.000700323 0 
3195 1 4.35851 5.7534 2.17954 1 0 0 -0.000322518 0 
21 1 3.575 6.32777 2.3757 0 0 0 -0.000358665 0 
3353 1 2.42725 8.64494 0.0501594 1 0 1 0.00145473 0 
171 1 0.859699 7.1071 1.97459 0 0 1 0.000739427 0 
4308 2 0.814971 7.46919 2.75771 1 1 1 0.00116257 0 
3167 1 0.889167 6.63533 2.94498 1 0 0 -0.000933749 0 
3892 2 2.6537 5.44816 0.151606 1 0 0 0.000280787 0 
3648 2 3.23194 4.87915 4.13919 0 0 0 0.00144279 0 
4142 2 1.54296 7.58443 1.7633 1 0 1 -0.000174375 0 
187 1 1.70076 7.24454 2.65075 0 0 1 0.000424297 0 
574 1 2.91009 6.54665 1.59734 0 0 0 0.000398044 0 
113 1 1.88081 6.68908 1.6554 0 0 0 0.000716479 0 
776 1 2.53976 7.65526 1.90483 0 0 0 0.000884128 0 
178 1 2.69499 6.87365 2.75583 0 0 0 0.000352856 0 
109 1 4.25944 7.9368 1.63128 0 0 0 0.00035255 0 
2994 1 3.49264 7.38218 2.29449 1 0 0 0.000245684 0 
693 1 4.3752 6.91633 1.91471 0 0 1 0.000322594 0 
759 1 4.29818 7.07618 3.05639 0 0 1 -8.03828e-05 0 
3086 1 1.09084 8.15207 2.20521 1 0 0 0.000567245 0 
3462 2 1.2593 8.89749 1.83027 0 0 0 -2.26702e-05 0 
2610 1 0.321702 8.89644 1.95294 1 0 1 -0.000260861 0 
2998 1 0.404464 8.52627 3.00893 1 0 0 0.000928874 0 
108 1 1.27087 9.17479 2.623 0 0 0 0.00138562 0 
3631 2 4.27869 9.54948 2.50536 0 0 1 -0.000223882 0 
2544 1 1.74576 8.32784 3.02997 1 0 0 0.000380934 0 
922 1 2.80153 8.25811 2.74052 0 0 1 0.00058656 0 
2987 1 2.79548 9.26834 1.75846 1 0 0 -0.000167135 0 
20 1 2.05931 8.5108 2.00452 0 0 0 -0.000135862 0 
2912 1 2.27647 9.23326 2.7505 1 0 1 -6.15269e-05 0 
619 1 3.30575 8.31793 1.7989 0 0 0 0.00139198 0 
1138 1 3.91051 8.22376 2.78011 0 0 0 -0.00133336 0 
692 1 3.81191 9.266 1.66984 0 0 1 -0.000874647 0 
1361 1 3.36886 9.20917 2.71165 0 0 0 -0.000252167 0 
752 1 4.25902 9.16515 3.26039 0 0 1 -0.000948368 0 
232 1 0.65891 5.03164 1.68339 0 0 1 0.000932568 0 
591 1 3.901 5.16038 3.63412 0 0 0 -0.00134549 0 
578 1 2.35936 5.04575 4.76606 0 0 0 -0.000938758 0 
3642 2 0.416692 5.18507 4.55785 0 0 1 -0.00035469 0 
242 1 0.456445 5.87173 3.70761 0 0 1 -0.000617587 0 
3044 1 1.31441 5.17768 4.34505 1 0 0 -6.53347e-05 0 
3200 1 1.54142 6.11711 3.71709 1 0 1 -0.000964448 0 
3084 1 0.308642 8.31819 3.99388 1 0 0 0.000242802 0 
274 1 4.87805 8.85994 4.12454 0 0 0 0.00149818 0 
1090 1 3.11284 5.82787 3.17993 0 0 0 -0.000629528 0 
4223 2 2.36185 5.82583 3.54833 1 0 0 -0.000120174 0 
551 1 2.91895 5.7351 4.20077 0 0 0 0.000845699 0 
1058 1 4.61715 7.47024 4.74752 0 0 0 0.000312644 0 
51 1 4.14096 6.05621 3.22976 0 0 0 -0.000999574 0 
630 1 4.42833 5.87696 4.22993 0 0 0 -0.00088687 0 
4103 2 3.67371 6.05166 3.90694 1 0 0 -0.000322296 0 
3104 1 4.77982 8.08518 0.603508 1 0 1 0.000602554 0 
2764 1 1.58308 9.17276 3.60826 1 0 0 0.000726491 0 
3066 1 0.1554 8.68174 0.391878 1 0 0 -8.78527e-06 0 
3841 2 4.76207 6.56977 1.09826 0 0 1 0.00064398 0 
2622 1 0.777573 6.85251 4.10728 1 0 0 5.31933e-05 0 
3061 1 1.1986 7.62283 3.58859 1 0 0 0.000130258 0 
3259 1 0.791956 9.54284 0.129696 1 0 0 -0.000843765 0 
3856 2 1.88529 6.8416 3.32359 0 0 0 3.56073e-05 0 
753 1 2.74339 6.65095 3.74618 0 0 1 0.0010304 0 
173 1 1.81213 6.97791 4.19621 0 0 0 -0.000283176 0 
3218 1 2.31851 7.62271 3.48338 1 0 0 0.000452292 0 
23 1 2.99365 7.78147 4.38628 0 0 0 0.000554889 0 
203 1 3.15815 8.8759 4.69676 0 0 1 0.00043853 0 
3594 2 3.5133 6.69301 3.21238 0 0 0 -7.9741e-05 0 
706 1 4.66959 4.87295 0.364565 0 0 1 -0.000455405 0 
669 1 3.37782 7.51179 3.35027 0 0 0 0.00061026 0 
65 1 3.92026 6.9474 4.05263 0 0 0 0.000663221 0 
492 1 4.45148 7.8657 3.68174 0 0 1 0.00116441 0 
96 1 2.18329 9.28125 4.46722 0 0 0 0.00035988 0 
3436 1 0.525746 9.45532 3.71599 1 0 0 0.00048328 0 
425 1 1.11244 8.92761 4.51165 0 0 0 5.1088e-05 0 
1208 1 3.57343 5.70899 0.0116546 0 0 1 0.000124931 0 
2505 1 0.186348 7.29329 3.32368 1 0 0 0.000863545 0 
3524 2 2.41653 8.49753 4.7026 0 0 0 0.000289007 0 
460 1 4.81226 5.36366 1.30784 0 0 1 -0.000955265 0 
722 1 4.67631 4.86049 4.40001 0 0 0 -0.00096404 0 
101 1 0.0900816 9.0645 4.61194 0 0 0 0.000438588 0 
176 1 1.96104 6.03385 4.69377 0 0 0 -0.000775867 0 
1397 1 4.81739 9.60838 1.69765 0 0 0 0.000594501 0 
1134 1 3.21265 9.64346 3.73976 0 0 0 0.000883182 0 
1320 1 4.8828 6.81347 3.84868 0 0 0 4.30731e-05 0 
184 1 0.0847686 7.82399 2.35119 0 0 1 9.39362e-05 0 
4127 2 0.0963813 9.43712 1.39235 1 0 1 0.0012184 0 
3019 1 0.779024 5.95858 4.82692 1 0 -1 -0.00075978 0 
55 1 1.09359 5.9667 5.94659 0 0 0 -0.00104133 0 
2931 1 0.572677 5.0821 5.41324 1 1 0 0.000663327 0 
1015 1 2.05328 9.4108 9.08615 0 0 0 -2.89308e-05 0 
3716 2 1.41608 5.56296 5.22999 0 0 0 -0.000630157 0 
538 1 2.1147 5.53033 5.77781 0 0 0 -0.000696877 0 
3001 1 2.93516 5.82253 5.27097 1 0 0 -0.00129657 0 
3575 2 2.8166 6.00797 6.18162 0 0 0 -8.19597e-05 0 
1121 1 4.8612 7.37822 8.77279 0 0 0 0.00029224 0 
3052 1 1.66154 8.51795 8.69054 1 0 -1 0.00126867 0 
3761 2 4.87228 8.0059 9.3479 0 0 0 0.00173851 0 
1463 1 3.74327 5.64702 6.00282 0 0 0 -0.000800837 0 
3503 2 4.37328 6.24979 5.71814 0 0 0 -0.00158339 0 
571 1 4.60739 5.56804 5.23115 0 0 0 -4.73088e-05 0 
545 1 3.86832 6.2466 4.98406 0 0 0 -0.0012037 0 
2020 1 1.08901 9.52728 8.73014 1 0 -1 0.000619384 0 
76 1 0.447466 6.80769 9.5236 0 0 -1 -1.39321e-05 0 
672 1 1.32023 6.83903 5.17697 0 0 0 -0.000148633 0 
4202 2 0.590399 6.79804 5.71085 1 0 -1 -0.000919374 0 
3005 1 0.451125 7.63528 5.83733 1 0 0 -0.000700528 0 
583 1 1.40222 6.91778 6.18698 0 0 0 1.34678e-05 0 
4167 2 1.491 7.65008 5.73051 1 0 0 0.000321057 0 
3013 1 0.134773 6.93551 4.98892 1 0 0 0.000437062 0 
639 1 2.25748 6.61535 5.58801 0 0 0 -0.000656683 0 
59 1 2.18582 7.57911 5.03992 0 0 0 -0.000176385 0 
144 1 2.26416 7.67669 6.10467 0 0 0 -0.000150476 0 
3970 2 2.82923 7.30908 5.516 1 0 0 -0.000540334 0 
180 1 3.35337 6.65148 5.82906 0 0 1 -2.08726e-06 0 
940 1 3.31118 7.60672 6.19245 0 0 0 -0.000584154 0 
597 1 4.32195 7.21637 5.77462 0 0 0 -0.000963284 0 
1247 1 3.61172 7.43187 5.12038 0 0 0 -0.000119324 0 
156 1 0.720007 8.75061 5.51341 0 0 0 -0.000301236 0 
434 1 1.53186 9.27691 6.07362 0 0 0 0.000640044 0 
661 1 1.28425 8.24101 6.32214 0 0 1 0.000117224 0 
3359 1 2.65632 6.26173 9.44342 1 0 0 0.000803009 0 
182 1 1.81462 8.4801 5.37798 0 0 0 -6.93722e-05 0 
2709 1 2.88993 8.21083 5.46009 1 0 0 -0.000407351 0 
2996 1 2.48777 9.2501 5.43974 1 0 0 0.000840378 0 
83 1 2.24593 8.66827 6.48737 0 0 0 -0.000591163 0 
663 1 4.03343 8.27023 5.6786 0 0 0 -0.000530967 0 
121 1 3.56085 9.28215 5.60855 0 0 0 0.000511597 0 
633 1 4.61799 9.23576 5.79648 0 0 0 -0.000304381 0 
604 1 3.54845 5.00178 6.7722 0 0 0 -0.000462971 0 
3634 2 3.96315 9.3403 6.4086 0 0 0 0.000687051 0 
210 1 0.354859 5.35455 6.53919 0 0 0 -0.000873649 0 
3475 2 1.27091 5.0701 7.30975 0 0 -1 0.00140288 0 
3023 1 1.0872 5.99042 7.03415 1 0 0 -0.000238899 0 
278 1 0.501149 5.29283 7.73955 0 0 0 0.000518487 0 
33 1 1.48415 5.08604 6.46007 0 0 0 -0.000637095 0 
3752 2 2.52821 7.1115 9.54163 0 0 0 -0.000490538 0 
3749 2 1.68058 9.36276 5.16998 0 0 0 0.00095169 0 
130 1 1.96424 6.09999 6.60014 0 0 0 -0.000760435 0 
167 1 2.00866 5.46396 7.45965 0 0 0 0.000853904 0 
900 1 2.57947 5.32431 6.65798 0 1 0 0.000981658 0 
3638 2 2.5198 6.10201 7.28739 0 0 1 0.000780313 0 
812 1 3.12541 5.53905 7.7583 0 0 0 0.000758513 0 
2546 1 2.58079 8.50048 8.06836 1 0 -1 0.000460323 0 
541 1 3.30642 6.07514 6.88233 0 0 0 -0.000874869 0 
3682 2 4.11321 5.70025 6.97151 0 1 0 0.000967101 0 
194 1 3.97489 6.03894 7.75918 0 0 0 -0.000506638 0 
727 1 4.30783 5.09521 7.55057 0 0 0 -0.00116018 0 
3153 1 4.21571 6.53004 6.54394 1 0 -1 -0.0003778 0 
3002 1 0.41972 6.58944 6.51216 1 0 0 -0.000260995 0 
3630 2 0.710142 7.36637 6.64413 0 0 0 -0.0014209 0 
3053 1 0.764627 6.97112 7.43311 1 0 -1 -4.25039e-05 0 
997 1 0.738043 8.01303 7.23692 0 0 0 -0.000589493 0 
150 1 1.80697 6.49245 7.69067 0 0 0 0.000694826 0 
1196 1 3.06133 6.60362 7.73598 0 0 0 -0.000613471 0 
197 1 1.6755 7.4269 7.05362 0 0 0 -0.000381724 0 
228 1 2.58383 6.87746 6.83806 0 0 0 -0.000658836 0 
3159 1 2.41554 7.35916 7.85164 1 0 0 -0.000532841 0 
359 1 4.2912 7.70381 6.6809 0 0 0 -0.000757474 0 
3751 2 4.30657 6.76754 7.46368 0 0 1 -0.00194843 0 
174 1 3.59568 7.19786 7.1821 0 0 0 -0.000537928 0 
364 1 4.37927 7.89208 7.71979 0 0 -1 -7.25332e-05 0 
731 1 0.0845111 7.72876 9.17521 0 0 0 0.000187324 0 
145 1 0.995568 9.06374 6.99527 0 0 0 0.000120698 0 
3004 1 0.133905 6.14593 8.36312 1 0 0 0.000512826 0 
2970 1 2.79644 7.95984 7.03898 1 0 -1 0.000153785 0 
2780 1 1.89144 9.52058 7.02176 1 0 -1 -0.000707471 0 
404 1 1.71417 8.45239 7.4322 0 0 -1 -0.0010799 0 
536 1 2.8754 9.02533 7.25833 0 0 0 0.000293997 0 
2609 1 1.89084 9.35143 8.05984 1 0 0 -0.000277777 0 
4133 2 3.70965 8.1233 7.18629 1 0 0 7.37188e-05 0 
3204 1 3.32872 8.61953 6.36135 1 0 0 -0.000354159 0 
157 1 4.38154 8.77068 6.83946 0 0 0 0.00112157 0 
914 1 3.73663 8.73422 7.80089 0 0 0 -0.000524442 0 
3746 2 1.92101 5.00423 8.69254 0 0 0 0.00125715 0 
745 1 3.43151 8.47476 8.9223 0 0 0 0.000963897 0 
688 1 4.4881 8.40632 8.65828 0 0 -1 0.00032691 0 
154 1 4.09047 7.61805 9.52444 0 0 0 0.00120727 0 
4288 2 0.50991 5.37198 8.67737 1 1 0 0.00253791 0 
80 1 1.36801 5.62152 8.31177 0 0 0 0.00108863 0 
1092 1 0.913901 5.86876 9.20574 0 0 0 0.000605337 0 
4314 2 1.73776 6.2162 8.97725 1 1 0 0.00173596 0 
3163 1 4.01976 9.38063 8.75363 1 0 -1 0.000357233 0 
473 1 0.968417 7.84362 4.87965 0 0 0 0.000315019 0 
168 1 2.37097 5.86955 8.47059 0 0 0 0.000362621 0 
3063 1 2.79651 5.13793 9.06561 1 0 -1 -0.00100224 0 
1072 1 4.7024 5.55422 6.31129 0 0 -1 -0.000829972 0 
3637 2 4.28699 9.1057 5.00575 0 0 0 -0.000107319 0 
783 1 3.80944 5.11569 8.46141 0 0 0 -0.000323939 0 
1096 1 3.54699 6.09325 8.71738 0 0 -1 0.000892237 0 
349 1 4.42855 5.50716 9.22092 0 0 -1 7.28215e-05 0 
3805 2 4.39556 6.05348 8.53001 0 1 0 0.00141158 0 
207 1 4.33426 9.54013 7.69764 0 0 0 -0.000596432 0 
3461 2 0.828851 6.14978 7.84675 0 0 -1 0.000270157 0 
3144 1 0.980923 6.70034 8.48935 1 0 0 0.000299269 0 
3043 1 0.408675 7.77183 8.22896 1 0 -1 -0.00128145 0 
3103 1 1.10433 7.68988 9.08341 1 0 0 -0.000929125 0 
3640 2 2.61629 8.76253 8.90718 0 0 0 0.00111608 0 
2976 1 1.41283 7.66754 8.04384 1 0 -1 -0.0011615 0 
3979 2 2.76555 6.59986 8.61734 0 0 -1 0.000344822 0 
765 1 1.99888 7.01459 8.73681 0 0 0 0.000282046 0 
91 1 2.52013 7.9087 9.02974 0 0 -1 0.00147629 0 
716 1 3.24347 7.19825 9.01787 0 0 0 0.000175597 0 
214 1 3.33232 7.82386 8.11675 0 0 0 -0.000211917 0 
3743 2 0.213129 7.0015 8.73 0 0 0 0.00107495 0 
218 1 4.22127 6.6248 9.27569 0 0 0 0.000769114 0 
655 1 3.95153 6.96932 8.20559 0 0 0 -0.00114899 0 
3512 2 3.97259 7.68907 8.6365 0 0 0 -0.000235615 0 
219 1 0.423094 9.50116 6.21362 0 0 0 -0.000215766 0 
238 1 0.895838 8.7579 8.06585 0 0 0 -0.000463945 0 
3770 2 4.69333 8.74169 7.69489 0 0 0 -6.58218e-06 0 
3108 1 0.645914 8.68631 9.11692 1 0 -1 0.000848467 0 
1499 1 1.58139 6.76731 9.59955 0 0 0 0.000112254 0 
726 1 3.12542 9.38924 9.31366 0 0 0 0.000982243 0 
696 1 2.97383 9.42365 8.27852 0 0 0 0.000388237 0 
161 1 1.89421 5.57419 9.44375 0 0 0 0.000810394 0 
2891 1 0.268275 8.49723 6.4239 1 0 0 -0.000183997 0 
268 1 1.13311 4.85747 9.11667 0 0 0 0.000332812 0 
708 1 0.117795 6.05389 5.63196 0 0 0 -0.00051025 0 
179 1 2.84114 9.57582 6.3363 0 0 -1 -0.000966047 0 
4289 2 2.79237 4.87094 7.3 1 0 -1 0.000318115 0 
3215 1 4.11661 8.77558 9.58463 1 0 -1 0.000284209 0 
200 1 3.74076 5.17376 4.86241 0 0 0 0.00025537 0 
383 1 0.549388 10.2722 1.24746 0 0 0 -0.000320547 0 
452 1 0.699371 10.639 0.286637 0 0 1 -0.000204241 0 
488 1 1.48045 10.1609 0.905842 0 0 1 -0.00078161 0 
2750 1 0.139044 12.634 0.218562 1 0 0 0.000446909 0 
3855 2 0.911425 9.84428 2.07168 0 0 0 -0.000308541 0 
1354 1 2.51355 10.1428 1.21416 0 0 0 -0.000767834 0 
4 1 2.73007 10.9831 0.383908 0 0 0 0.000963081 0 
750 1 1.99819 11.0308 1.24841 0 0 1 -0.000817659 0 
163 1 2.42775 9.95473 0.267653 0 0 1 0.0011157 0 
3306 1 1.6461 11.2115 0.293253 1 0 0 -0.000276473 0 
3059 1 3.23618 10.8666 1.36147 1 0 0 -0.000182545 0 
485 1 3.4857 10.2532 0.513722 0 0 1 0.000677916 0 
68 1 4.13368 10.2866 1.34548 0 0 0 0.000187502 0 
901 1 3.76553 11.2471 0.339124 0 0 0 0.00113762 0 
3609 2 3.19112 11.8882 0.243698 0 0 0 0.000158552 0 
41 1 0.252552 11.7364 3.40726 0 0 0 -0.000131104 0 
3484 2 3.23514 13.3073 3.8475 0 0 0 0.00043282 0 
2748 1 0.913478 11.3175 1.11563 1 0 0 -0.00119916 0 
3224 1 2.36568 13.1936 3.45289 1 0 0 -0.000383672 0 
3691 2 0.649368 12.0602 0.703575 0 0 1 -0.00207544 0 
1783 1 4.83444 14.4419 2.29555 0 0 0 0.000101904 0 
954 1 3.95167 14.4786 4.6697 0 0 1 -0.000325435 0 
313 1 1.64947 12.074 1.04779 0 0 0 -0.000734135 0 
3354 1 2.64383 11.8455 0.935445 1 0 1 -0.00179062 0 
667 1 1.94364 12.8759 0.434543 0 0 1 -0.000513176 0 
587 1 0.195385 14.3578 2.13221 0 -1 0 -0.00184876 0 
38 1 4.3842 11.3591 1.29386 0 0 0 -0.00146847 0 
306 1 3.77927 12.1186 0.850321 0 0 0 -0.000435752 0 
3735 2 3.44827 12.5798 1.53591 0 0 0 0.00025185 0 
3741 2 3.34765 9.82713 1.25381 0 0 1 -0.00113313 0 
63 1 3.7027 13.3506 4.55735 0 0 0 0.000753034 0 