LAMMPS data file via write_data, version 12 Dec 2018, timestep = 2640000

4320 atoms
2 atom types

0.0000000000000000e+00 1.9309999999999999e+01 xlo xhi
0.0000000000000000e+00 1.9309999999999999e+01 ylo yhi
0.0000000000000000e+00 9.6549999999999994e+00 zlo zhi
7.7239999999999984e+00 0.0000000000000000e+00 0.0000000000000000e+00 xy xz yz

Masses

1 1
2 1

Atoms # atomic

1295 1 4.3912991103704702e+00 1.1451024142222739e-01 9.2073079439715466e-01 0 1 0
669 1 2.8385699398641950e+00 4.0970663289141864e+00 1.3045648841310791e+00 0 0 1
1177 1 2.6935236194525496e+00 1.7575260166022102e+00 4.5362026963561961e+00 0 0 0
235 1 2.9020294115250227e+00 9.2972370525853776e-01 3.9379405476756140e+00 0 0 0
580 1 4.8808187541262775e+00 1.8400613443704381e+00 3.9769637037443109e+00 0 0 0
1062 1 2.9560737708761176e+00 1.1576198972101597e+00 2.7960433386067831e+00 0 0 0
1072 1 6.6452978495603965e+00 4.7832256104076318e+00 1.7102515517274373e+00 0 0 0
1121 1 2.7837458508740252e+00 4.8111343548064172e+00 2.2434214094037519e+00 0 0 1
1458 1 4.7494168861477561e+00 1.3433665113304549e+00 1.0702717905858954e-01 0 0 0
1676 1 3.7522074780929096e+00 1.9941192018762079e+00 4.1124526085117612e+00 0 0 0
691 1 2.1051903362802147e+00 4.0095275187627735e+00 4.3452919143851902e+00 0 0 0
1190 1 5.6149447392797991e-01 2.3089837967001986e-01 8.4303447102285767e-01 0 0 1
664 1 3.2907048044696703e+00 3.1083211542107159e+00 1.5475674830156791e+00 0 0 0
4263 2 3.6525798124799174e+00 4.6594421094216711e+00 2.5530421194589881e+00 1 0 0
1166 1 1.7377892603192522e+00 1.9133661498422385e+00 4.3546813228788478e-01 0 0 1
722 1 2.6988091604286080e+00 1.5177402549702435e+00 9.2824865733526962e-01 0 1 0
663 1 1.8719727150357781e+00 1.8157058590785409e+00 2.5828121899748733e+00 0 0 0
1798 1 2.4893245782298488e+00 6.6953385291686662e-01 2.6180187492493617e-01 0 1 0
1351 1 5.1830233422550318e+00 2.3818482689524325e+00 2.0457053090284938e+00 0 1 0
1198 1 1.9541060689813228e+00 3.4006396577928464e+00 4.9053786754519801e-01 0 1 0
2969 1 1.8250730542644411e+00 4.3079137872211870e+00 1.2814536023277443e+00 1 0 0
3688 2 1.5156249722809367e+00 3.2563502290545947e+00 4.4441888853026805e+00 0 1 0
548 1 2.8187218108446972e+00 2.5717220805183127e+00 3.8648482525776413e+00 0 0 0
572 1 1.2945859636407031e+00 1.8043185779279971e+00 3.4732856136904156e+00 0 0 0
575 1 2.2829056400679173e+00 2.9804874169334489e-01 2.6098458459853968e+00 0 0 0
1858 1 5.4692577337318875e+00 2.6590827865989781e+00 3.7326333525684015e+00 0 1 0
1165 1 5.3145782311901102e-01 8.9451555838580954e-01 3.4597785858010752e+00 0 0 0
34 1 7.9382920172295579e-01 1.2744199266937501e+00 3.6814055957593900e-01 0 0 0
1134 1 9.8782680010657953e-01 1.2869383942779242e-01 2.7982267299774253e+00 0 0 1
1039 1 1.2848767632909932e+00 2.6608484940810202e+00 1.8576558975410455e+00 0 0 0
568 1 3.5619383032909946e+00 2.2570782844566679e+00 1.0769415676269838e+00 0 0 0
1167 1 1.2396109067311427e+00 1.0790323637548760e+00 4.2932882985961687e+00 0 0 0
566 1 4.4198197705260673e+00 1.6700979118665435e+00 1.9178183784283953e+00 0 0 0
537 1 4.8590545700988805e+00 3.3211075241741930e+00 2.3862687952766599e+00 0 0 0
1504 1 5.8419679743643549e+00 3.7349210363311238e+00 3.9689063759906631e+00 0 0 0
124 1 2.9828298474998163e+00 2.3061267327093296e+00 2.8438567384015805e+00 0 0 0
508 1 4.0617354492959619e+00 3.9023507024877815e+00 2.9958826972688710e+00 0 0 0
1428 1 5.0841780224816659e+00 3.9164614419038020e+00 4.4299255094743484e-01 0 0 0
3627 2 1.4916231598548251e+00 3.5815045183296621e+00 1.8613867084923497e+00 0 0 1
976 1 3.6405326758387249e+00 2.3121495233343914e-01 4.2579154792413778e+00 0 0 0
3602 2 3.9743031286842712e+00 1.1147439063684861e+00 2.4090682632464340e+00 0 0 0
4177 2 2.1037968504897093e+00 1.2463613717653734e+00 4.2637822978338864e+00 0 1 0
1085 1 3.5655414341840412e+00 2.8057160419598466e+00 4.7154932548656712e+00 0 0 0
4296 2 4.3641888720666833e+00 4.6683407914968669e+00 4.6750126369069687e+00 1 0 0
550 1 2.3068139142982247e+00 3.8309477733031656e+00 2.2713368673675420e+00 0 0 0
3686 2 2.9131509424106730e+00 3.0687061399662081e+00 2.2836985145800743e+00 0 1 0
3884 2 3.2122428865991539e+00 1.7011989992533429e+00 3.4803885489347763e+00 0 0 1
1446 1 2.6349534003269066e+00 2.2179498892577088e+00 1.8510539076447579e+00 0 0 0
555 1 1.4352426383158103e+00 7.1970147272542129e-01 2.0921736868326315e+00 0 0 0
1194 1 3.8685780414002506e+00 1.0534865404242488e+00 3.5223428229496112e+00 0 1 0
3719 2 1.8833770205485272e+00 2.4345318385042791e+00 3.4458344191567956e+00 0 0 -1
1573 1 4.7162976105714538e+00 2.5736115488715310e+00 3.0415893539192997e+00 0 0 0
1061 1 2.2534575590168422e+00 4.3953891460009737e+00 3.6094136293170159e-01 0 0 0
1040 1 2.3350231742016541e+00 1.0906478979531722e+00 1.8854607595341524e+00 0 0 0
3918 2 1.2421291680647870e+00 4.3737906887821310e-01 2.0912126195942768e-01 0 1 0
2088 1 2.4472224100935795e+00 3.0801024413461024e+00 4.7136197644319378e+00 0 0 0
1721 1 5.2376841592153154e+00 2.7342012193145253e+00 9.2849053921471358e-01 0 1 0
1271 1 4.9142432916957448e+00 3.5981366359243512e+00 1.3562459317452644e+00 0 1 0
3708 2 9.7028978062985538e-01 1.1962938604065421e+00 1.4749804027695865e+00 0 0 0
3723 2 4.0987834273840686e+00 3.8860745490114819e+00 2.9433472142602096e-01 0 0 1
1191 1 2.8881956713586838e+00 3.3741660377413782e+00 3.1485931334045634e+00 0 0 0
2421 1 5.7463526582423778e+00 3.2669187189665525e+00 2.9366810289378935e+00 0 0 0
655 1 3.1276585919784772e+00 4.3825483556064899e+00 3.1921364508199304e+00 0 0 1
1007 1 1.6546597477050495e+00 7.7309262782230381e-01 3.3167467534605670e+00 0 0 0
3784 2 2.4341382933895401e+00 2.1718415407633312e-01 3.4997852409121939e+00 0 1 0
141 1 4.4703443098495841e+00 4.7741415085937566e+00 2.0003645115830951e-01 0 0 1
3865 2 5.4238875326806575e+00 1.8100682515215645e+00 5.7476706684629786e-01 0 0 0
1678 1 6.1088249171531714e+00 4.0533087917308528e+00 2.2839904402021194e+00 0 0 1
4081 2 2.7693428658545058e+00 3.3658336981041046e+00 7.4079242429949965e-01 0 0 0
2108 1 4.8207693986736047e+00 3.5624313213146634e+00 3.6320160743300058e+00 0 0 0
3964 2 5.3208354244070915e+00 4.0361818123160473e+00 2.0037700080045751e+00 0 1 0
1030 1 5.4908105783633845e+00 3.1661467090260871e+00 4.7779893491394754e+00 0 0 0
767 1 4.9348793666982598e+00 1.0435357125492657e+00 1.1255090914023895e+00 0 1 0
3619 2 1.1122373962375298e+00 2.3172456658151854e+00 2.7259853191789736e+00 0 0 1
3608 2 1.1631062699177142e+00 1.2461098381338644e+00 2.7739519202415908e+00 0 0 0
503 1 5.9131028867809858e+00 4.2754914154877035e+00 1.2018130711588060e+00 0 0 0
50 1 2.1641421328708148e+00 3.1522461041835754e+00 1.4809033809443610e+00 0 0 0
1506 1 6.0195314017501547e+00 3.3908975184272712e+00 6.5076727725381789e-01 0 0 0
2164 1 2.3567039528775684e+00 1.6927552403904731e+00 3.5146617843771621e+00 0 0 1
4119 2 1.0673866684751763e+00 2.5180761842969057e-01 3.8077180967414064e+00 0 0 0
1906 1 4.5852213402089284e+00 7.5600099331077053e-01 4.2741078227592677e+00 0 1 0
987 1 3.2150721562979219e+00 2.7522887419791657e+00 8.4778859958230410e-02 0 0 0
1019 1 2.5485779586554251e+00 2.5076356170345599e+00 8.0883000240545511e-01 0 0 0
2941 1 8.7062229904195287e-01 1.7757071375931033e+00 2.0904434062594341e+00 1 0 0
1913 1 1.9900726406803189e+00 3.5856137014598211e-01 4.2992014619271011e+00 0 1 0
635 1 4.4154387356856368e+00 4.3516403351895461e+00 2.1700476393465808e+00 0 0 1
1071 1 3.8623523902128047e+00 2.9446324125602499e+00 3.5136854182707702e+00 0 0 -1
1535 1 5.2103980587366738e+00 4.2004713732227072e+00 2.8860743379147391e+00 0 0 0
1505 1 1.9712827297480322e+00 3.1931958214564746e+00 3.7577914456574222e+00 0 0 0
1081 1 3.7979300301522239e+00 2.9809332196313956e+00 2.4744617178308479e+00 0 0 1
30 1 4.0901168449357561e+00 4.3663365847661462e+00 3.9785668959582021e+00 0 0 0
1162 1 2.8947112969208213e+00 4.6635364330939062e+00 4.3398089513168570e+00 0 0 0
4122 2 4.8846371360113219e+00 1.4075357818229237e+00 4.7825077964891198e+00 0 0 0
1184 1 4.8867848455822918e+00 3.9963817102138344e+00 4.5644009987524061e+00 0 0 0
567 1 4.1053812513898160e+00 3.0791981964558275e+00 5.5486509564010844e-01 0 0 0
95 1 3.3673180349226288e+00 2.9583551984191575e-01 6.2502854849384359e-01 0 0 0
870 1 1.6051878252871181e+00 9.2071451132358051e-01 9.3311392046626951e-01 0 1 1
1440 1 2.1082958220867560e+00 2.8297710001962093e+00 2.6516672560899153e+00 0 0 0
513 1 3.1861998353097278e+00 3.6239480730889997e+00 4.1299606969047096e+00 0 0 0
860 1 3.3665725179082768e+00 1.5063384936386126e+00 1.8289474316129528e+00 0 1 1
4267 2 4.1564053606610347e+00 3.4952906240387778e+00 4.1802163699796955e+00 1 0 1
1526 1 1.8058872491347921e+00 2.2676953255068071e+00 4.2889714518801405e+00 0 0 0
505 1 1.7351636196111753e+00 1.8095546128863202e+00 1.4660277750377280e+00 0 0 0
994 1 3.3467295836408857e+00 3.9026900136223799e+00 2.2585717758896733e+00 0 0 0
1484 1 3.6984932349313704e+00 1.2509685458327273e+00 7.0422146037771294e-01 0 0 0
3533 2 3.4463867246627604e+00 2.3494699354213995e+00 2.0478439436608267e+00 0 1 0
1117 1 3.2535050306790820e+00 3.9008917343065188e+00 2.8130667701163575e-01 0 0 1
1437 1 5.8436203532490136e+00 3.1984925917791776e+00 1.7198454021693110e+00 0 0 0
1647 1 4.5670304183917168e+00 2.7218260686073008e+00 4.2745018217793032e+00 0 0 0
652 1 3.8858961453753360e-01 3.7895243869071243e-01 4.4118344860235332e+00 0 0 0
3768 2 1.6654770694242864e+00 2.5477641458997327e+00 1.0112101063761292e+00 0 1 0
1051 1 3.8750873622720352e+00 3.9223896341240869e+00 1.1141357736789479e+00 0 0 0
991 1 5.5149170111127965e+00 1.8157399717724660e+00 3.1238360354819172e+00 0 0 0
1462 1 4.5652457710606713e+00 1.9763803255035988e+00 8.9082831485406322e-01 0 0 0
3590 2 4.7982182194259231e+00 1.8638216127653784e+00 2.6180881192884708e+00 0 0 -1
1511 1 4.3039629760038984e+00 2.7786077788703931e+00 1.5576303267440195e+00 0 0 0
1357 1 3.2646326383488606e+00 4.7685907343698292e-01 2.1576468768905119e+00 0 1 1
1651 1 4.1190584781790029e+00 2.0758894234903891e-01 2.8344183244129333e+00 0 0 1
54 1 2.1503221564635941e+00 4.2640823275474116e+00 3.3004121531892805e+00 0 0 -1
3703 2 4.0895622948032191e+00 3.5797936129071739e+00 1.8254851634476290e+00 0 0 0
1147 1 4.0782900591382445e+00 7.4071847376257438e-01 1.6444138710073672e+00 0 0 1
814 1 3.8949375735441625e+00 1.9114129716147941e+00 2.8490835600944431e+00 0 1 0
3793 2 3.1180192887206104e+00 1.8839285196655453e+00 3.1048653000529441e-01 0 1 0
3856 2 3.1686528609699391e+00 8.0746890516811765e-01 1.3717583761014065e+00 0 0 0
2197 1 4.7531487546174196e+00 1.0422240705455272e+00 3.0156790220858802e+00 0 1 0
1682 1 6.1546380109125112e+00 4.6230670180354920e+00 3.2423817673791420e+00 0 0 0
386 1 3.2347506292962134e+00 1.4462467563180845e-01 3.2208945272447562e+00 0 1 0
744 1 4.7401675096198659e+00 4.6973759040733549e+00 1.2478523933450392e+00 0 1 0
534 1 5.1261239880803426e+00 4.6946245120963912e+00 3.8145884643274748e+00 0 0 0
2174 1 2.4915179709648174e+00 2.3598555163826163e-01 1.2516807671727410e+00 0 1 0
656 1 1.1295064269881110e+00 2.6401794754501067e+00 2.1117419301478471e-01 0 0 1
1359 1 4.1307183387765560e+00 5.6106527700162567e-01 5.3587316236204351e-02 0 1 1
1376 1 3.9055285480044405e-01 9.3441767115566776e-01 2.3814958483163471e+00 0 1 0
1621 1 6.0854272952555295e+00 4.7806529921215928e+00 4.3024847832126660e+00 0 0 0
1153 1 5.3786062228764981e+00 2.1572154522261116e+00 4.7833106501379206e+00 0 0 0
4116 2 1.7797048224369818e+00 1.9025636292419976e-03 1.7469370181731263e+00 1 0 -1
1016 1 4.4953105084867868e+00 3.6356111338295496e+00 8.3333945723376139e+00 0 0 -1
538 1 4.1877477391968281e+00 4.7175215515415370e-01 6.3502224879125135e+00 0 0 -1
913 1 5.9660047536979310e-01 1.3058289067106738e-01 6.0500538846775829e+00 0 1 0
1764 1 4.5860547781590597e+00 3.4503854812503714e+00 9.3711553967518775e+00 0 1 -1
70 1 1.5447979170886925e+00 1.9991725004589525e+00 9.0781697024583536e+00 0 0 -1
2135 1 3.2402525815829435e+00 3.1641953830091678e+00 6.4326513495158038e+00 0 0 0
3634 2 4.0539823059610596e+00 1.8911930746073098e+00 6.9404858929847739e+00 0 0 0
2072 1 2.2623391204783934e+00 4.4455018227499649e-01 7.8413745593447359e+00 0 0 0
1067 1 1.3022737877510022e+00 1.1317543261998275e+00 8.3332460003018873e+00 0 0 -1
4130 2 5.7284762391949524e+00 3.8605966291206810e+00 7.4193389991314387e+00 0 0 -1
659 1 1.6220030592137076e+00 2.0194183352437105e+00 5.9023620945363042e+00 0 0 0
1617 1 4.1118917418520988e+00 2.6554408959940736e+00 8.8303701260853327e+00 0 0 0
1187 1 2.4959574777794034e+00 1.6082203093400282e+00 6.1016318881756844e+00 0 0 0
1539 1 5.6323130959050651e+00 3.2780273328632821e+00 9.1594275329282819e+00 0 0 -1
1013 1 2.7700381023172738e+00 4.3820072668854255e+00 8.9211181050037549e+00 0 0 -1
517 1 3.9341871822817591e+00 4.3292857345468789e+00 9.0286385954708415e+00 0 0 0
1186 1 1.5415501758765062e+00 9.7881067186051907e-01 7.2615337362490857e+00 0 0 0
227 1 2.5740319560073290e+00 2.4936255807838243e+00 7.8788551766142083e+00 0 0 0
1093 1 1.5021341942035413e+00 2.9652014358719581e+00 5.4153559323770484e+00 0 0 0
569 1 1.6283234871633945e+00 2.0727163015472030e+00 7.5432940526018086e+00 0 0 0
3658 2 1.7905272181193412e+00 5.2930125688534979e-01 8.6419701859467892e+00 0 1 -1
4231 2 2.7405311834915898e+00 3.9132831593004744e+00 6.0126052193331727e+00 1 0 0
1318 1 2.2670742153108443e+00 1.5091656656363606e+00 8.3514656214563594e+00 0 1 0
3513 2 2.3449744416450660e-01 5.7942099645672973e-01 5.3721954525424263e+00 0 0 0
4101 2 5.2795055911873572e+00 2.8852271377107401e+00 6.6001393587428057e+00 0 0 -1
1865 1 3.8000073699973673e+00 4.9839061998568313e-01 8.6379380043205103e+00 0 1 0
3713 2 2.0911868893587657e+00 2.2731226624722169e+00 5.1181746164540973e+00 0 0 0
1606 1 3.2590233961194075e+00 9.2168214142351657e-01 5.7906948624087144e+00 0 0 0
1083 1 3.3189578760218881e+00 1.1099199289939472e+00 9.3864394229271699e+00 0 0 0
1714 1 4.9532655832656642e+00 7.5255703699366683e-01 8.9705860487843392e+00 0 1 -1
1665 1 5.0375947593878898e+00 2.6915647775569909e+00 5.6483735602650951e+00 0 0 0
1001 1 5.1460860720213013e+00 2.7615832676693199e+00 8.3068382846182427e+00 0 0 -1
733 1 2.2319633754748791e+00 2.7119848200703420e+00 9.4720261752157509e+00 0 1 -1
3739 2 9.0802737009101719e-01 1.4087165661385961e+00 9.1027013955591070e+00 0 0 0
231 1 4.0026964033626289e+00 3.8227953259292837e+00 7.1555058909497697e+00 0 0 0
1591 1 2.2209183577600227e+00 2.3982584095562705e+00 6.7197847099750696e+00 0 0 0
1091 1 4.9584234248560577e+00 4.3722639108539143e+00 7.4722015988760884e+00 0 0 0
968 1 2.5015177461854101e+00 1.6523436927855029e+00 9.3213794058584938e+00 0 0 0
127 1 2.4699920937843647e+00 2.6773255429066354e+00 5.7863673273320035e+00 0 0 0
1654 1 5.1593596478378423e+00 1.5871060525445191e+00 5.6181996256336335e+00 0 0 0
684 1 2.1087106731282232e+00 4.5209683195990102e+00 6.1001276667842568e+00 0 0 0
3749 2 6.0862064606190591e+00 4.3666319521578574e+00 8.7766114798466379e+00 0 0 0
673 1 2.4109435393632497e+00 3.4438928050816298e+00 8.6565663292827999e+00 0 0 0
3755 2 3.0729174536914377e+00 2.6693948494155113e+00 7.1712898088811308e+00 0 0 0
1178 1 4.5188696626006788e+00 4.4950570780136063e+00 6.4829798245305570e+00 0 0 0
3040 1 1.4687621543212852e+00 3.4161907243384944e+00 9.2327754013505725e+00 1 0 -1
3737 2 1.8151483672260755e+00 1.5509069610002617e+00 6.6334468553583843e+00 0 0 0
954 1 4.0635476731221374e+00 2.8033851549189088e+00 7.0846469948972368e+00 0 0 -1
1561 1 4.9146434433715935e+00 2.4589054772243637e+00 9.5753575732569001e+00 0 0 -1
1630 1 3.8834448140786466e+00 1.5647031662227542e+00 8.4904319656675540e+00 0 0 0
186 1 3.5313849367387986e+00 2.9864545509196767e+00 8.0123394170799678e+00 0 0 0
4159 2 5.5350879372732320e-01 5.1830358217427164e-01 8.2922266752931311e+00 0 1 -1
1499 1 4.8202911832031923e+00 1.8677712230163876e+00 8.7266180758765071e+00 0 0 0
108 1 1.8265260486843651e+00 3.1152762794718600e+00 7.3826512186128479e+00 0 0 -1
1301 1 4.1172078455052237e+00 1.4636360494356762e+00 5.9903957844124500e+00 0 1 -1
1069 1 1.0890984455362367e+00 5.9315390232651266e-01 5.2163874802081676e+00 0 0 0
617 1 4.5712858161317520e+00 3.4015313124716813e+00 6.3729070695468124e+00 0 0 0
1533 1 5.1776083611979051e-01 8.9565082459525303e-01 7.4586887834902829e+00 0 0 -1
3123 1 4.3704673904541718e+00 3.2918922298201263e+00 5.1290601318993412e+00 1 0 0
698 1 1.5865398289562265e+00 8.6270996676104994e-01 6.1239406534283649e+00 0 0 0
3961 2 2.5860505617572644e+00 3.5264531199246276e+00 9.5011914872776551e+00 0 0 0
3747 2 4.2072103126232268e+00 4.4464115502265882e+00 7.9709935760977828e+00 0 0 0
56 1 1.6944027863368027e+00 1.0224448628909459e+00 9.3887780179727720e+00 0 0 -1
2385 1 5.5047185658632509e+00 2.2496917405613446e+00 7.2820668927768679e+00 0 1 0
1624 1 5.0942356824827240e+00 4.4342788803050155e+00 9.0665050717446185e+00 0 0 0
3577 2 4.4160427207842883e+00 2.8827718940449629e+00 7.9001854750072074e+00 0 0 -1
1175 1 4.5634310157103464e+00 1.2251103548746800e+00 6.9448046526990792e+00 0 0 0
1853 1 3.1801190225398042e+00 1.9992653829731719e+00 5.4477445779588187e+00 0 1 1
3849 2 5.5758192020360076e+00 2.3515245168572680e+00 9.0025833046930490e+00 0 0 0
624 1 3.9257062751290959e+00 2.0060557403153849e+00 9.6401887474173087e+00 0 0 0
4223 2 8.2968187261829507e-01 6.8678423876427963e-01 6.6350326930219818e+00 1 0 0
88 1 2.4440552645135072e+00 4.6037206724727939e+00 7.8832728634783003e+00 0 0 -1
1836 1 4.5932873203561435e+00 1.0319650775233444e+00 7.9895881869305265e+00 0 1 0
626 1 9.3437842677322869e-01 1.7704823715231066e+00 6.7566263198842718e+00 0 0 0
4289 2 8.8717494635003225e-01 1.6018937570442981e+00 7.6664882248766650e+00 1 1 0
1183 1 3.3314121642629200e+00 3.4871114390368909e+00 9.0198217929562503e+00 0 0 0
1569 1 3.7576707077176303e+00 2.9520696058964319e-01 7.3824242959778559e+00 0 0 0
1848 1 5.8192006151606366e+00 3.4659225553415784e+00 5.7860343747442613e+00 0 1 0
3699 2 2.2049817130328488e+00 2.2729115030099876e+00 8.6867745249960180e+00 0 0 -1
3060 1 1.9261773368474642e+00 4.1473722784954612e+00 7.0399505645635561e+00 1 0 -1
1057 1 3.1930700333433704e+00 3.4670456344906269e+00 5.3930910007959136e+00 0 0 0
1349 1 4.5926770059092270e+00 7.5346986664786775e-01 5.3495840453059547e+00 0 1 0
1089 1 3.4135425434303537e+00 4.0829750535140974e+00 8.1487905332910717e+00 0 0 0
1114 1 2.0325422289658643e+00 1.3049672980372513e+00 5.1248524600692358e+00 0 0 0
1482 1 1.0796302037277594e+00 1.9418389890350560e+00 4.9186825996097250e+00 0 0 0
3757 2 4.2084552584912265e+00 1.2340399904295063e+00 9.1487735515149406e+00 0 0 0
961 1 5.4355772353509888e+00 3.9572361839194237e+00 6.5830272440729711e+00 0 0 0
1683 1 4.3015245433969254e+00 2.0504981591236477e+00 5.0586497767830716e+00 0 0 0
2098 1 5.9895014642406803e+00 4.1959759129800291e+00 9.5668173005076902e+00 0 0 0
3503 2 6.0666338326421476e+00 4.2560191584819922e+00 6.0630059259039877e+00 -1 0 2
1078 1 3.9294370228959945e+00 2.7013444237269808e+00 5.8024887321259797e+00 0 0 0
3518 2 1.9474521747235733e+00 1.6810179354937130e-01 7.0612962350281787e+00 0 1 0
1155 1 2.2243198561562014e+00 3.3809881985746695e+00 6.4539192619243817e+00 0 0 0
1514 1 5.0899915557790276e+00 3.2267535129813369e+00 7.3704485301252332e+00 0 0 -1
670 1 4.9489646706452737e+00 4.0250974439518972e+00 5.5795558879063476e+00 0 0 0
1453 1 3.4772716923650058e+00 1.9960319429644395e+00 7.5925762925994125e+00 0 0 -1
628 1 5.8342951765982756e+00 4.1365756810206609e+00 5.0493102268481609e+00 0 0 0
687 1 3.0455403976361057e+00 4.6076914896079213e+00 5.4895488250742792e+00 0 0 0
1660 1 5.4698956549916344e+00 3.8879969439084383e+00 8.2677945138430502e+00 0 0 0
1403 1 3.7797177985734614e+00 5.3258365379126801e-03 5.4275560690924376e+00 0 1 0
3016 1 3.7252684637339852e+00 4.0396880248659288e+00 6.0842498716215347e+00 1 0 0
1107 1 2.5967531151880134e+00 5.5806133862411333e-01 8.8613297494606424e+00 0 0 0
1242 1 3.1528094127368336e+00 2.2823836632463061e+00 8.8027674007313053e+00 0 1 -1
1056 1 2.1360162418276247e+00 3.7487934945145769e+00 5.4288763899363470e+00 0 0 0
109 1 7.8206359587121888e-01 5.4692383238521936e-01 9.1469414242711853e+00 0 0 -1
704 1 3.1143135857162210e+00 9.9197524905716994e-01 7.9756373792165540e+00 0 0 0
948 1 2.5337105688359953e+00 7.1918148563614415e-01 6.5869301337999770e+00 0 1 0
899 1 3.4799918133854337e+00 1.1444724446125694e+00 6.8269669770626278e+00 0 1 0
662 1 2.8145490549609251e+00 3.4953135969442801e+00 7.4173896724848616e+00 0 0 0
973 1 1.6732085911317616e+00 2.8012378162552674e+00 8.3793125944314095e+00 0 0 -1
4241 2 2.3556444391096774e+00 6.8280630883869187e-01 5.7387484211377489e+00 1 0 -1
1435 1 4.7805452510267683e+00 2.1351585382341804e+00 6.4740920463398561e+00 0 0 0
3598 2 3.2665956239186653e+00 3.7585870856538467e-01 6.5320624174515789e+00 0 0 0
3868 2 3.9206667422785211e+00 1.1711029862979287e+00 7.5483451960776176e+00 0 0 -1
1050 1 4.5351453250517739e+00 2.0507052679178548e+00 7.6768592607177686e+00 0 0 -1
1628 1 6.3873945970343149e+00 4.2017777465322430e+00 7.9050791585089435e+00 0 0 0
1146 1 2.5608224987383230e+00 1.5953451538834615e+00 7.2823972213980701e+00 0 0 0
647 1 2.8668811470593880e+00 4.3790943564400129e+00 6.7990413361755797e+00 0 0 0
1095 1 5.9992627249747494e+00 3.1265935342220237e+00 6.9844393145183847e+00 0 0 0
4064 2 4.6177836908480270e+00 4.4961859485171857e-01 7.3126533427984715e+00 0 1 0
4300 2 4.8637381763506928e+00 9.4494409490747988e-01 6.1831306615763033e+00 1 1 0
1128 1 2.8614653099991574e+00 4.0374674738568306e-01 4.9350902730384076e+00 0 0 1
547 1 3.3230752966929189e+00 2.1486298958592402e+00 6.4850604668341472e+00 0 0 0
583 1 1.2643111125241935e+00 2.8286876707389017e+00 6.5370687990929621e+00 0 0 0
1077 1 2.0458387786910337e+00 4.7645756778421475e+00 5.0818556513989135e+00 0 0 0
3603 2 2.8137848001379622e+00 3.9837462043442513e+00 4.8644977561279124e+00 0 0 0
978 1 1.3106335444822361e+00 4.8943057048786424e-02 8.2230244999556330e+00 0 0 -1
1180 1 5.9451804671168706e-01 1.1847127678356104e+00 5.9347639702872534e+00 0 0 0
970 1 3.7743046183885891e+00 4.0881231130284119e+00 4.9372178355503316e+00 0 0 0
545 1 1.0442850062192326e+00 4.3269680373001135e-02 7.1858782800598808e+00 0 0 -1
680 1 1.6312570502875183e+00 3.9157842955136504e+00 8.1392340529274865e+00 0 0 0
3115 1 8.4666022327484214e-01 2.1052288253105051e+00 8.3398651524775591e+00 1 0 0
1080 1 1.9669245547976462e+00 3.6203808017366084e-03 5.2447395635584320e+00 0 0 0
1443 1 5.8550855911404485e+00 4.8004224338260677e+00 7.1226467080307465e+00 0 0 0
1199 1 3.6254641706583084e+00 1.2156403880361997e+00 4.8554807300720499e+00 0 1 0
763 1 4.1913027787885992e+00 7.2601348433380792e+00 8.5511347815154759e-01 0 0 0
1151 1 6.8889155521957743e+00 8.2776642337748356e+00 4.3471509570325562e-01 0 0 0
634 1 5.3067636792488253e+00 7.8673439382367540e+00 2.6892403539788696e+00 0 0 1
1664 1 5.3333020568732543e+00 6.8643828305760444e+00 2.5075705735341094e+00 0 0 1
989 1 3.6504807856170052e+00 6.5295007869897406e+00 1.3819566621045223e+00 0 0 0
1675 1 6.3397671453000601e+00 9.4903435494774211e+00 3.7386672398930737e-01 0 0 1
972 1 6.9755698494662139e+00 6.5813220349493831e+00 3.2482771119705558e+00 0 0 0
486 1 3.8727204152251398e+00 9.2360390367233869e+00 1.7770396838193530e+00 0 0 0
3706 2 3.9844555986261341e+00 7.3556323830059016e+00 1.7258320883481484e+00 0 0 0
3175 1 3.3007040874758875e+00 7.0341626429351098e+00 2.8933473884326422e-01 1 0 0
979 1 7.9210808085924320e+00 9.2073639229698383e+00 2.4890736936669233e+00 0 0 0
3597 2 4.8463371009280003e+00 5.5028241200559807e+00 4.9171538208669352e-01 0 0 0
1094 1 5.4304326989308924e+00 6.8382125627930392e+00 3.6628923852297270e+00 0 0 0
709 1 4.7923489311259466e+00 9.2772927669085661e+00 4.4053453695614637e+00 0 0 0
585 1 7.3172657984809213e+00 8.4669940101719963e+00 4.5820158620342033e+00 0 0 0
90 1 3.5537885138255412e+00 5.2191845924312021e+00 3.6987555683422593e+00 0 0 0
1124 1 6.3834280494320259e+00 8.2359494438856498e+00 3.9906913718570971e+00 0 0 0
780 1 3.6018723574651323e+00 8.0055500089047413e+00 3.9695995661064615e-01 0 0 0
1663 1 5.9617754085545975e+00 8.5736241703995333e+00 8.4423765950141350e-01 0 0 0
3573 2 6.6449385843119870e+00 9.4087081236113210e+00 3.3377042094038964e+00 0 0 1
1477 1 5.2056618539765909e+00 7.5551270539795770e+00 8.1697865991430607e-01 0 0 0
1052 1 5.5499260827189865e+00 5.9693637005320266e+00 2.1058403304535629e+00 0 0 0
1123 1 4.2265235235981002e+00 5.6486948127062719e+00 1.1518821692242729e+00 0 0 0
3993 2 5.0883764704333370e+00 7.1471882023399518e+00 1.0802962887706577e-01 0 0 -1
1572 1 5.5167980535614891e+00 4.8638086978189943e+00 1.9775842166848692e+00 0 0 1
753 1 5.3919394089442587e+00 8.3449586158345923e+00 4.3475255578821512e+00 0 0 0
1632 1 6.5736861379001015e+00 5.5482325893815947e+00 3.6443116848503347e+00 0 0 0
1045 1 5.6425784407957185e+00 6.6780595672009468e+00 1.2787305876629877e+00 0 0 0
528 1 3.6607241120007066e+00 6.1545655430327137e+00 4.3008638577789364e+00 0 0 0
1834 1 7.6563337840332597e+00 8.1860925625039336e+00 2.0519679692430408e+00 0 0 1
3838 2 4.1577229713528414e+00 5.8685888828249579e+00 3.5961930527940704e+00 0 0 0
589 1 4.7293299681850449e+00 7.6195282687580752e+00 3.8310113254947842e+00 0 0 0
2106 1 7.3751049423142909e+00 7.4415268146705404e+00 1.2005454072708996e+00 0 0 1
1017 1 5.9360811111888241e+00 6.8711711989071462e+00 2.1607553641594593e-01 0 0 0
139 1 4.6489106418148758e+00 6.5680968550122989e+00 1.5998098467963939e+00 0 0 1
4025 2 8.2127926872532235e+00 9.3778881901220537e+00 8.8873313972114498e-01 0 0 0
1637 1 4.6663584446307560e+00 6.5377980564427567e+00 4.2777821553138500e+00 0 0 0
1605 1 3.1776507707407777e+00 7.4685647628990655e+00 1.2903323528237314e+00 0 0 1
3689 2 6.1959293965695803e+00 6.3051254616618291e+00 3.9301955468139651e+00 0 0 1
1643 1 4.1283097606902484e+00 5.7572391306591584e+00 1.0114365853763875e-01 0 0 1
1297 1 6.7463298101291933e+00 8.3833364772970231e+00 1.5006372799997667e+00 0 0 0
1756 1 7.6333026599910685e+00 9.0581828706749921e+00 1.4774047580861203e+00 0 0 1
2136 1 7.1863090576216750e+00 6.1022692201900561e+00 2.2537246504907280e+00 0 0 1
1571 1 5.9828115943591822e+00 6.2276265185392710e+00 3.0646407203976600e+00 0 0 0
1941 1 6.8359873720375628e+00 9.1637017901006441e+00 2.4700912545697364e+00 0 0 0
1163 1 2.5804652568695663e+00 5.1211413449822691e+00 1.0875025660609901e+00 0 0 1
3828 2 1.9895605094687341e+00 4.8325340800665249e+00 2.6949448256651891e+00 0 0 0
1105 1 4.5068702977021520e+00 5.4576405459452957e+00 4.2310791909190737e+00 0 0 1
903 1 5.9295167086888458e+00 9.0283562641002693e+00 2.0053623579743229e+00 0 0 1
4283 2 4.7799846087230646e+00 7.0803141510958580e+00 3.0607177178735405e+00 1 1 -1
493 1 3.2043287443182451e+00 6.9212915973871354e+00 2.2370392596520583e+00 0 0 0
1390 1 7.3676520860781807e+00 7.2252131668183646e+00 2.3278549680832898e+00 0 0 0
3779 2 6.9624175478708903e+00 9.0005413251297952e+00 8.7297075583125838e-01 0 0 0
1652 1 2.7072013099408356e+00 5.7351658090203639e+00 4.1419769211252833e+00 0 0 0
334 1 5.0819817575946278e+00 8.7461360791195162e+00 2.8897808914992845e-01 0 0 0
1043 1 5.4799976056285953e+00 5.7534535271846590e+00 3.8678573680046551e+00 0 0 0
955 1 5.4766677321464350e+00 5.3060783104221212e+00 2.8976817380872029e+00 0 0 0
73 1 5.4351737191680964e+00 7.2681427162722532e+00 4.6198486623659161e+00 0 0 -1
561 1 6.9797404306315780e+00 6.3765128116780483e+00 4.3740006770551201e+00 0 0 0
957 1 4.9352972788469831e+00 6.3792447181282368e+00 5.0505827115320245e-01 0 0 0
1562 1 4.5417783875420685e+00 5.4171531611125632e+00 2.1365555985263520e+00 0 0 1
509 1 4.7489177635214865e+00 6.1168209673845748e+00 3.0641268597827596e+00 0 0 0
3963 2 6.3441188007827218e+00 6.4330075014235248e+00 8.9769523066956680e-01 0 0 1
176 1 7.0296925080503669e+00 9.3954565908906797e+00 4.1043420904964556e+00 0 0 0
1712 1 3.3537960303352081e+00 8.0428881607560339e+00 2.2398353958463377e+00 0 0 0
1253 1 3.5612928207130543e+00 5.4657350724120288e+00 2.6802561899777029e+00 0 0 0
3736 2 3.8608944651061905e+00 7.6552010541852571e+00 3.8348831275028159e+00 0 0 1
1157 1 4.1126726933591282e+00 8.1460399067735878e+00 1.3443608087717240e+00 0 0 0
236 1 3.9710301394190273e+00 6.4588741986962335e+00 2.5242082493013052e+00 0 0 0
1197 1 4.0755042716543128e+00 8.5494087345034266e+00 4.2719271085473727e+00 0 0 0
3694 2 5.9823637562119867e+00 5.1431443080245547e+00 1.0850871692132931e+00 0 0 0
1023 1 6.0357428520757210e+00 5.8773242884119616e+00 4.2200256381221701e-01 0 0 0
804 1 6.2090858447956734e+00 7.3583768291275060e+00 3.0304922775776175e+00 0 0 -1
3901 2 7.6027890846168038e+00 8.2611203738724459e+00 1.1935839007291760e+00 0 0 0
747 1 6.6803803391501582e+00 9.6406204301937368e+00 1.3858370455640370e+00 0 0 0
4066 2 4.7699995092444922e+00 9.2945111287912194e+00 1.0681714476695803e+00 0 0 0
75 1 4.9513174612448605e+00 9.4466173841621135e+00 1.9500251936017021e+00 0 0 0
1044 1 8.1157830760065597e+00 9.1137171476705152e+00 3.9184052771691609e+00 0 0 0
1005 1 5.2191953238473818e+00 5.0130756140277759e+00 4.7811833675736093e+00 0 0 0
1460 1 5.4856214810763220e+00 4.8747517988072842e+00 4.0715379537143431e-01 0 0 0
3997 2 3.9800738942109208e+00 6.3945463559953204e+00 5.9510194243735060e-01 0 0 -1
618 1 6.4174372544465053e+00 6.8271528251688700e+00 1.9521196047350888e+00 0 0 1
1536 1 7.2189020317734443e+00 6.4516265414254583e+00 1.2134209556538971e+00 0 0 0
1710 1 4.4723581935106207e+00 8.4586198521715588e+00 2.3098916800776048e+00 0 0 0
1158 1 4.0489665900289973e+00 6.8098112824413164e+00 3.5275266253256210e+00 0 0 1
542 1 3.1281279181092208e+00 5.7765400739497030e+00 1.7435689902961686e+00 0 0 0
77 1 6.3119847284671824e+00 7.5048838601388832e+00 1.0923980549053114e+00 0 0 0
3886 2 6.8207573213242378e+00 7.5833960775481044e+00 1.8161523523242644e+00 0 0 1
3675 2 3.6467084660035924e+00 8.8963885879692981e+00 2.6221736633308246e+00 0 0 1
2855 1 7.0906070939499113e+00 7.4406129224609163e+00 4.6699757395983870e+00 0 0 0
1159 1 7.0582575022288498e+00 6.9675489583208590e+00 3.2450513910363771e-01 0 0 1