LAMMPS data file via write_data, version 12 Dec 2018, timestep = 528000

4320 atoms
2 atom types

0.0000000000000000e+00 1.9309999999999999e+01 xlo xhi
0.0000000000000000e+00 1.9309999999999999e+01 ylo yhi
0.0000000000000000e+00 9.6549999999999994e+00 zlo zhi
1.5447999999999986e+00 0.0000000000000000e+00 0.0000000000000000e+00 xy xz yz

Masses

1 1
2 1

Atoms # atomic

1332 1 4.0251338332783391e+00 2.2068948062176643e+00 1.1922586063216014e+00 0 1 0
712 1 4.4442447664660445e-01 1.1138499352157527e+00 1.1725142846141323e+00 0 0 0
565 1 4.5620274530569045e+00 3.2016672796665966e+00 3.2929440177515521e+00 0 0 0
216 1 1.0453281085454775e+00 5.4690707201855415e-01 4.8028148433251799e-01 0 0 1
573 1 2.0417478461577758e+00 9.4303398722434761e-01 9.4934948818278930e-01 0 0 0
3089 1 4.7588579969465178e-01 2.9919654154884414e+00 1.6368306118082260e-01 1 0 0
1392 1 4.3315544577155816e+00 1.8919515153098498e+00 2.3715752230254257e+00 0 1 0
3933 2 2.7956268100259458e+00 4.8326867013553110e-01 1.0049859062190289e+00 0 1 0
1461 1 3.7174895226272557e+00 6.2467426956101457e-01 6.0696535532958562e-01 0 1 1
1017 1 2.7471252854212360e+00 8.6435070095225663e-01 1.8409977032247685e-01 0 1 1
609 1 2.9103720249048441e+00 1.4019343415907619e+00 1.3348355021391054e+00 0 0 0
1178 1 3.2225669271159996e+00 3.1463534441559704e-01 1.7753077892967575e+00 0 0 1
336 1 2.0219828746310551e+00 2.2070527083008926e+00 4.6925334244055055e+00 0 1 0
1713 1 4.7547642775208550e+00 2.6939775684819844e+00 6.0756977847877047e-01 0 1 0
527 1 1.0105638961563523e+00 2.3384747030358124e+00 1.4176361543578040e+00 0 1 1
3590 2 1.9631418759273160e+00 3.9856568312485408e+00 3.5759236086797070e+00 0 0 0
636 1 4.8821903811008900e+00 3.7092804114330740e+00 2.3651246740689822e+00 0 0 0
3111 1 1.2395934370717150e+00 1.7319759860656754e+00 6.1636888706440518e-01 1 0 1
4115 2 1.1358629840888335e+00 2.5906766633794507e+00 5.0527593810085625e-01 1 0 1
1031 1 2.3364503933311571e+00 1.8670404260412585e+00 5.1707760590633378e-01 0 0 0
252 1 1.9580716523759196e+00 2.8287148214733380e+00 7.5659106055675884e-01 0 0 1
3162 1 1.5838746978057778e+00 1.4904914783966623e+00 1.6639879936989810e+00 1 0 1
611 1 3.5176807545344748e+00 1.6794436837373550e+00 3.6265145813166699e-01 0 0 0
1033 1 3.0096523768145307e+00 2.4501408044121522e+00 1.0078205920677046e+00 0 0 0
546 1 3.7474682313620975e+00 2.8523630854200732e+00 3.9930086370672496e-01 0 0 0
1815 1 3.9602181704949824e+00 1.1608897410697725e+00 1.5835425655262954e+00 0 1 0
17 1 1.3689653153455443e+00 4.1852383777476838e+00 4.6134775483947701e+00 0 0 0
1231 1 4.8134798981400007e+00 2.1795245492057269e+00 3.3248937825625111e+00 0 0 0
1162 1 4.5452769298656976e+00 3.9244711366835090e+00 4.0774096117858045e+00 0 0 1
2495 1 1.0868125869401575e+00 4.5300142722602859e+00 1.2729685143032461e+00 1 0 0
380 1 3.3338095676469015e-01 3.9759772174904118e-01 4.6735185195736078e+00 0 1 0
2696 1 1.1172704057338452e+00 3.3590852802980868e+00 1.0306210152255606e+00 1 0 1
1295 1 4.3854962750156119e+00 4.7702123048424756e+00 3.5039157830817533e+00 0 1 0
3143 1 1.9333174313014814e+00 4.0788726553510211e+00 6.9580726853175057e-01 1 0 1
3158 1 3.6794161138530215e+00 3.3587733940346571e+00 1.3453872620637948e+00 1 0 1
1141 1 3.0127328823787174e+00 4.3779290932582606e+00 1.2317293445104391e+00 0 0 0
26 1 2.7394509118145876e+00 4.3538587231637518e+00 3.3801168356950360e+00 0 0 0
97 1 3.0108355794045858e+00 3.5774508005269881e+00 5.4102578669688484e-01 0 0 0
742 1 4.1167259176731132e+00 3.7384143868749202e+00 3.1011396363425053e-01 0 0 1
768 1 4.1338408898855450e+00 4.3687771636243715e+00 1.1923613856145707e+00 0 0 1
4295 2 4.7663406558189045e+00 1.6658905843026124e+00 3.9838042167927772e+00 1 1 0
3982 2 4.9154193977099760e+00 4.0609621611638396e+00 1.1772058327991558e-01 0 0 0
436 1 3.2771913418681309e-01 7.4217886072180128e-01 2.9947728577368622e+00 0 1 0
675 1 6.8526105734820519e-01 1.2337213276798573e+00 2.1652386593682444e+00 0 0 1
360 1 1.2437484665360785e+00 3.3931292463699131e-01 1.5795334079328387e+00 0 1 0
944 1 1.4943061370952431e+00 6.3293951475781784e-01 2.7578751841841949e+00 0 1 1
1180 1 2.3007591488443095e+00 7.3555703910585957e-01 1.9603038195904134e+00 0 0 1
3920 2 2.3178084789737841e+00 1.6570656095864087e+00 2.1801564176511437e+00 0 1 -1
763 1 3.3900934716095561e+00 4.0750428299270558e+00 4.1762648248558252e+00 0 0 1
967 1 4.5281626223720632e+00 1.4040971176209485e+00 4.8208919691895524e-01 0 1 1
1245 1 3.2650481406931355e+00 1.2588079498423412e+00 2.3406619739447443e+00 0 0 0
12 1 3.5062786671024702e+00 4.9573151965007967e-01 2.9749162802163474e+00 0 0 0
102 1 2.5614164920415075e+00 3.3633056284412253e+00 3.5532565943361045e+00 0 0 0
1634 1 4.7621291847958958e+00 3.1684560589663874e-01 1.0125534488182941e-01 0 0 1
554 1 4.8659894593522051e+00 3.6001425827022606e+00 1.1272595020279017e+00 0 0 0
149 1 2.7508872296690736e+00 4.6487682357914499e+00 2.6182029552212477e-01 0 0 1
3709 2 7.5914715188259940e-01 3.1757826971841530e+00 1.7873800285927937e+00 0 0 0
254 1 1.0048275312855237e+00 2.6095542019122124e+00 2.4800134346733920e+00 0 0 1
44 1 2.8062150351162454e+00 2.6570031016522337e+00 2.7164510583521616e-03 0 0 1
567 1 1.5772717350480063e+00 1.6717755044462341e+00 2.7375695664393729e+00 0 0 0
4064 2 1.6665825718665488e+00 2.9810632235478036e+00 1.5672506269072854e+00 0 0 1
427 1 1.4880425148209537e+00 3.3296712661262551e+00 3.1618492793965323e+00 0 1 0
3121 1 2.1271533197928587e+00 2.9464860655279352e+00 2.4182416828415860e+00 1 0 1
1778 1 2.2355259209695664e+00 2.2632931392021325e+00 1.6503876592851778e+00 0 1 0
607 1 2.6195011044580250e+00 2.1729776172025779e+00 2.8473938561359700e+00 0 0 0
3703 2 3.0391841071955619e+00 3.0032310099729074e+00 1.7156420639827892e+00 0 0 0
646 1 3.1068888114854323e+00 3.1882549520184429e+00 2.7497508249898788e+00 0 0 0
367 1 3.6499036099242108e+00 2.3260810527460642e+00 3.0358494246820360e+00 0 1 0
1992 1 4.0003940326752510e+00 3.1505382236356181e+00 2.3137974807214632e+00 0 0 0
4198 2 2.8576840417621256e+00 4.7150276903222510e+00 2.0222591261683167e+00 1 0 0
64 1 3.8222755262567754e-01 4.3701721406425298e+00 4.6510759904418491e+00 0 0 0
3715 2 4.6376603682119510e+00 2.6756390570645583e+00 2.6670904146580461e+00 0 0 0
499 1 5.9351421873124255e-01 3.6792923153263088e+00 2.7154529084150223e+00 0 0 0
3476 2 9.5423720065437501e-01 4.3391839701996222e+00 2.1604972933920017e+00 0 0 0
47 1 2.3990986141078090e+00 3.4954453500987817e+00 1.4946428812042238e+00 0 0 0
114 1 2.0440712030607560e+00 4.5781963228354936e+00 1.6907391630248341e+00 0 0 0
500 1 1.4596159299253217e+00 3.6800263099598585e+00 2.0535744681205292e+00 0 1 1
614 1 1.4755938291247634e+00 4.3622171568935508e+00 2.8766454561520529e+00 0 0 0
58 1 2.4714931452301894e+00 3.9901774521667446e+00 2.4260286650559015e+00 0 0 0
677 1 4.7486242670087986e+00 2.6846788371926804e+00 1.7691385663402404e+00 0 0 1
1032 1 4.3182517932647961e+00 4.5753872804015661e+00 2.3866914209368271e+00 0 0 0
261 1 3.7255173382271685e+00 4.0634555739744025e+00 3.1475336513240788e+00 0 0 0
275 1 3.4601491786985776e+00 4.0330284759766668e+00 2.0844006196507210e+00 0 0 1
3825 2 4.2397468073996771e+00 3.8171167123744176e+00 1.8030407197375475e+00 0 1 1
3864 2 4.6281021655111507e+00 3.3328778447795843e-01 3.9676261636022430e+00 0 0 0
3491 2 3.5832465211099911e+00 4.3684881183959021e+00 5.4588177629043722e-01 0 0 0
3072 1 2.4556210492396857e-01 2.0041848046021618e+00 6.6894752012337089e-01 1 0 0
706 1 4.4460197914147654e+00 4.8137899765123082e+00 2.3922294602925295e-01 0 0 1
881 1 2.4480830360983745e+00 7.4998951358879273e-01 2.9994344221249660e+00 0 1 0
878 1 4.4804877926270112e+00 2.8740000061276807e+00 4.3931496970834552e+00 0 1 0
861 1 9.1483438600282008e-01 1.3435632839620866e+00 3.5683406651499170e+00 0 1 0
657 1 1.5739661070065174e+00 1.2429399147310707e+00 4.5369074689053281e+00 0 0 1
889 1 2.0339938457949698e+00 7.0939083266251660e-02 3.7464057170790177e-01 0 1 1
116 1 2.1663366074209658e+00 5.1641208065950295e-01 4.0110048097167725e+00 0 0 0
273 1 3.4202718711018116e+00 2.2734284959824649e+00 2.0145737435931199e+00 0 0 1
4222 2 2.7323064177191827e+00 3.1151123839150721e+00 4.3518386045158088e+00 1 0 -1
825 1 2.6489082591457147e+00 1.3353650451648336e+00 4.5932538306389974e+00 0 1 0
977 1 3.1532725056503748e+00 5.8120140603221204e-01 4.2097994845272675e+00 0 1 0
892 1 3.1430547663195458e+00 1.3830222244765698e+00 3.4620796733485122e+00 0 1 0
3868 2 4.6673974921906476e+00 4.0250657310549585e+00 3.1384227019774249e+00 0 0 1
797 1 4.3092673504446282e+00 1.6953608457472524e-01 2.0665651837571062e+00 0 1 0
3179 1 1.8447782610194212e+00 2.4802810556702046e+00 3.6040183677808342e+00 1 0 0
631 1 1.0720408928559100e+00 2.2365995627687481e+00 4.2257751475202401e+00 0 0 0
3465 2 9.5466972079015799e-01 2.2116024553732072e+00 3.2709905684590570e+00 0 0 0
240 1 1.8494075823612566e+00 3.1926594966384942e+00 4.3521635527215725e+00 0 0 0
3055 1 2.0643119961329175e+00 1.5046710697931234e+00 3.7256515684705938e+00 1 0 0
722 1 4.1242974426902039e+00 4.7476519463502749e+00 4.6307990951512927e+00 0 0 0
2048 1 3.6174699572007869e+00 3.0853182637788987e+00 3.7570517195995965e+00 0 0 0
778 1 2.8044025228207907e+00 2.3543243973271197e+00 3.9622725075600989e+00 0 0 1
1152 1 3.8954353648418758e+00 2.0124838378159482e+00 4.0306410133787516e+00 0 0 1
3065 1 2.3859539106120491e+00 4.0238921787315833e+00 4.4173505605371037e+00 1 0 0
71 1 7.3302957533255853e-01 3.2185747739294150e+00 4.3504004268091556e+00 0 0 0
594 1 4.0900384345387755e+00 9.9589156137681534e-01 4.2130561547156651e+00 0 0 0
1426 1 4.1686037618336051e+00 1.3330967389385704e+00 3.2470814163111088e+00 0 1 0
2555 1 8.5562481277316127e-01 4.0776894694185097e+00 3.6892991846624636e+00 1 0 0
2636 1 8.8231447783608585e-01 4.1039712720159836e+00 3.1127482500496645e-01 1 0 1
4116 2 4.1030851900505940e+00 9.2990680169238271e-01 2.4655428328312921e+00 1 0 0
1293 1 4.5349177026045107e+00 3.7471690923221784e-01 3.0819734179067213e+00 0 1 0
664 1 3.4820213051368305e+00 2.9107377844405709e+00 4.7631205438293414e+00 0 0 0
506 1 1.1296789623509158e+00 2.5800430357412274e-01 3.7863632713089661e+00 0 1 0
1576 1 3.9502744127521727e-01 2.9567319669585244e+00 3.4246882024172862e+00 0 0 0
3411 1 1.0137567192701863e-01 4.1083963037563892e-01 1.9884005561753506e+00 1 1 1
465 1 2.2977825262336721e-01 1.8922435055218452e+00 2.8613912442842961e+00 0 1 1
1793 1 4.8590387818396223e+00 6.1981752397093992e-01 1.2330091448041804e+00 0 1 0
3648 2 2.6402511778548150e+00 4.8255635132348154e+00 4.1753104495383768e+00 0 0 0
81 1 5.5375770419302162e-01 1.4766821463313822e+00 4.7514598587149992e+00 0 0 0
1300 1 3.4979879035024686e-01 3.8928652986381493e+00 1.6549951910107368e+00 0 1 0
3115 1 5.1370815641099128e+00 4.3816753198719347e+00 4.8080855181867115e+00 1 0 0
1488 1 5.0901034357526811e+00 4.6000756367001534e+00 1.6880191542306668e+00 0 0 0
683 1 5.0330179759183604e+00 4.5413298040621726e+00 7.8304458598518343e+00 0 0 0
263 1 6.0048725181639284e-01 9.9610331181979972e-01 6.4988610760955430e+00 0 0 0
124 1 3.3451429011439000e+00 3.3836025391684941e+00 9.1922668663796223e+00 0 0 0
264 1 4.3423212949563386e+00 2.6763524768171996e+00 5.4664781380447467e+00 0 0 0
589 1 4.6536796336570490e+00 3.6324506945105415e+00 8.2877098345949634e+00 0 0 0
879 1 1.0030403757846449e+00 9.8718659997789104e-01 5.5325667614782770e+00 0 1 0
1040 1 2.0650861968947223e+00 1.3501954901478554e+00 5.4535149947729451e+00 0 0 0
3135 1 1.8452093053399790e+00 4.0496118879108217e-01 5.7506802181405590e+00 1 0 0
3474 2 1.1535921155709454e+00 3.4040022916711321e-01 6.1962050693900261e+00 0 0 0
3498 2 2.3620696258578566e+00 9.3510465850963176e-01 6.2188939539595927e+00 0 0 0
582 1 1.6721982673530793e+00 1.3752534951464244e+00 6.5001961785159450e+00 0 0 0
3722 2 4.4247100913618018e+00 2.1318956743764188e+00 8.2421647079031413e+00 0 0 0
863 1 2.8937589104444714e+00 6.0343096298067367e-01 5.3893452280262322e+00 0 1 0
682 1 3.2531276899703645e+00 9.9050144543596597e-01 6.3116656723363018e+00 0 0 0
1459 1 3.6950665927370414e+00 1.3211969449050247e+00 5.1314893835162989e+00 0 1 0
4229 2 2.9284189247812655e+00 1.4356612956315304e+00 5.5696506745383552e+00 1 1 0
3865 2 3.7586916581697074e+00 6.6742154219522520e-01 5.7519229989528950e+00 0 0 1
3174 1 4.5293561978751573e-01 2.6626489361480543e-01 8.5007422571815532e+00 1 0 0
3883 2 3.8404285458366947e+00 2.1335131147011630e+00 4.9678699670141189e+00 0 0 1
730 1 8.7553704056802295e-01 1.9452092360858706e+00 6.0312255707641382e+00 0 0 0
880 1 4.8558315200291648e+00 1.5256622804969278e+00 8.6913201480722666e+00 0 1 0
1016 1 1.0457697425730677e+00 2.6520394845277324e+00 5.1901265069543170e+00 0 1 1
1008 1 1.1465649575098289e+00 2.9718618075990890e+00 6.1619853191887906e+00 0 1 0
3557 2 1.2751324791637031e+00 1.7607953464845296e+00 5.2541884252564870e+00 0 1 0
1053 1 1.8879781261737656e+00 2.3458686676649481e+00 5.6894416702259507e+00 0 0 0
602 1 2.4700089662989084e+00 3.0576036579610215e+00 5.1636216584797392e+00 0 0 0
253 1 2.3222651137105697e+00 3.2437380130895033e+00 6.1463542195139862e+00 0 0 0
3469 2 1.6694515277594197e+00 3.2329535954418973e+00 5.5215006642416897e+00 0 0 0
740 1 2.6421909374458532e+00 1.8143223862551197e+00 6.3219940893995084e+00 0 0 0
3675 2 2.7768961988104071e+00 2.5233589445624656e+00 5.8783501791789625e+00 0 1 0
1206 1 3.5560101981381962e+00 2.1093133275403617e+00 5.9373276492989469e+00 0 0 1
1573 1 2.9570415735497733e+00 2.1595154589359926e+00 5.1093383583483902e+00 0 0 0
1077 1 4.1893949970052251e+00 1.2827758925854758e+00 6.1755309482837060e+00 0 0 0
3481 2 2.8746660406916336e+00 3.3905060783112635e+00 8.4352291187216402e+00 0 0 0
3530 2 4.1468003342390016e+00 4.5039654568212004e+00 6.6369015461945446e+00 0 1 0
282 1 2.5182517933888582e-01 2.7261337589172894e+00 7.5888961964942760e+00 0 0 0
471 1 1.7428122745173347e+00 1.1933238011002061e+00 9.5909560397339249e+00 0 1 0
138 1 8.3291761454711866e-01 3.6426478830005675e+00 5.3908285798252535e+00 0 0 0
3778 2 2.5600763670125937e-01 2.2630570256319740e-01 6.3482992014718214e+00 0 1 -1
3148 1 9.2867813983744152e-01 4.6541421185335228e+00 8.1806213034143944e+00 1 0 -1
3724 2 3.9749186761889819e+00 1.0347491498200545e+00 7.0235644753495254e+00 0 0 0
590 1 1.3351720593176211e+00 3.9888513688281657e+00 6.3474739627381522e+00 0 0 0
270 1 2.0761852057963015e+00 3.9982628709578161e+00 5.4862975384869310e+00 0 0 0
3695 2 2.1798690766038833e+00 6.0565663400787328e-01 4.9077492028110887e+00 0 1 -1
1049 1 3.3631616057621883e+00 3.1325277314912077e+00 5.8175675050733320e+00 0 0 0
3620 2 2.7991054487435054e+00 4.0028619971711841e+00 5.9539853278359089e+00 0 0 0
601 1 3.0607641693333338e+00 3.8331414022270964e+00 5.1531649771911301e+00 0 0 0
2050 1 4.3784725960443565e+00 4.2464797237330804e-01 7.8074779526522988e+00 0 0 0
1438 1 3.9012987324110626e+00 1.4750571384712968e-01 8.7215217176242721e+00 0 1 0
885 1 4.2582010547251166e+00 1.4748397815995431e+00 7.7509854204194850e+00 0 1 0
3518 2 1.3848412424219175e-01 1.0667461790269708e+00 8.5005922652134700e+00 0 0 0
816 1 4.1075725005118763e-01 9.1959766718488312e-01 7.5689265732942586e+00 0 1 -1
1187 1 4.8008591456279524e+00 3.2560965447040013e+00 9.3654202936925408e+00 0 0 0
142 1 1.7166748953195485e+00 2.3218448628443644e+00 9.5283741219361158e+00 0 0 0
1137 1 4.3122890511726455e+00 2.1843901657818505e+00 9.4402780537822188e+00 0 0 0
4232 2 1.1751385409943642e+00 9.9651264904666403e-01 7.2193277300719627e+00 1 0 1
464 1 1.7897283648633173e+00 4.0777729642130961e-01 6.8562002986952120e+00 0 1 0
442 1 1.4379889749673780e+00 5.3065969406734126e-01 7.9738599924935523e+00 0 1 0
49 1 1.8828311500631578e+00 1.6120399778274692e+00 7.5447069631407784e+00 0 0 0
3546 2 2.4777199500867177e+00 7.7533742900734259e-01 7.9518405042817006e+00 0 1 0
3427 1 2.6545358356740243e+00 9.8469836576431269e-01 7.1184357361518380e+00 1 1 0
1025 1 3.5368821216108031e+00 1.5830855930526108e-01 6.9938520089841738e+00 0 0 0
106 1 3.3816224273529794e+00 7.7719584223663052e-01 7.8358683692947855e+00 0 0 -1
3570 2 2.9415888148618002e-01 2.7963915397199179e+00 5.6232761562889353e+00 0 1 0
660 1 3.5844571947812836e+00 4.5026897685961984e+00 9.3005010430676052e+00 0 0 0
3628 2 4.3108137069513806e+00 2.3750991999228708e+00 6.3115654564555248e+00 0 0 0
28 1 7.9650865282096628e-01 1.8390094844925111e+00 7.1364427642367012e+00 0 0 0
3036 1 7.0476586391168383e-01 1.2230496729755624e-01 7.0659478755967138e+00 1 0 0
1167 1 4.9909466558138984e+00 3.5719641786194973e+00 7.2131661627931098e+00 0 0 0
3482 2 9.2520287974231996e-01 2.6776295913881158e+00 6.9559800375949070e+00 0 0 -1
647 1 4.1810408037143265e+00 3.7033581178843051e+00 5.1374328708539512e+00 0 0 0
3888 2 4.1684332455946027e+00 4.4135509276233194e+00 8.1174128992569852e+00 0 0 0
269 1 1.2650229025133215e+00 2.5119777076871013e+00 7.8371538175488276e+00 0 0 0
2892 1 1.7772371392083599e+00 2.3441795274888935e+00 6.7940000065787611e+00 1 1 0
419 1 2.3377000662829768e+00 2.7256919908545219e+00 7.6481871035628588e+00 0 1 0
4206 2 2.5849884202648665e+00 1.9408200623710012e+00 7.2116612052979585e+00 1 0 0
629 1 1.5416362377947503e+00 3.2808870769781140e+00 7.1335288990305630e+00 0 0 0
725 1 3.4523170096396916e+00 1.7533172028592225e+00 7.0163531169926108e+00 0 0 0
845 1 2.9648507048430197e+00 2.6297108127956252e+00 6.7507077436620291e+00 0 1 0
653 1 3.7111956988310051e+00 2.3710377757835990e+00 7.7883565361499159e+00 0 0 0
580 1 3.9948306589077198e+00 2.8888295572044478e+00 6.8943533570286171e+00 0 0 0
1345 1 2.7611555543232673e+00 1.6276851133740504e+00 8.0703112204101934e+00 0 1 -1
969 1 5.1050355421017368e-01 3.4891302396865345e+00 6.8529072783257243e+00 0 1 0
251 1 2.1838300760337535e+00 7.5555358853422738e-02 8.5039386166411504e+00 0 0 0
276 1 9.2257264288137852e-01 3.5821240734737061e+00 7.9372747760100362e+00 0 0 0
4088 2 2.3892128000581643e+00 3.6728460538344523e+00 9.5584870881104642e+00 1 0 0
223 1 2.3599645858834819e+00 4.1872206514950658e+00 6.6439147701635353e+00 0 0 0
766 1 1.4377577561931665e+00 4.3888785660486267e+00 7.3205220936609106e+00 0 0 0
287 1 2.2220313416274071e+00 3.8064807837048287e+00 7.7590990609921544e+00 0 1 -1
3835 2 2.5186543082407900e+00 3.3760813427496541e+00 6.9725910155589039e+00 0 0 0
126 1 1.1579348792100996e+00 4.6895781555871201e+00 5.4885635422275945e+00 0 0 0
3611 2 4.0864826445691067e+00 3.1453685699698348e+00 7.8193013214511566e+00 0 0 0
3673 2 3.4292940381441070e+00 5.0987983141155868e-01 9.4603891177460451e+00 0 1 -1
610 1 3.1989251569112978e+00 3.3211657170437077e+00 7.6265880882432660e+00 0 0 0
424 1 3.3322579665743781e+00 3.7831890139505187e+00 6.5411581026499830e+00 0 1 0
248 1 3.1151164779140026e+00 4.4077236923094310e+00 7.5855153379540976e+00 0 0 0
204 1 4.0304062781464598e+00 3.9222010490786290e+00 7.3463661560501761e+00 0 0 0
1105 1 4.3121916561860418e+00 3.7387460118502265e+00 6.3218318471413779e+00 0 0 0
981 1 3.7671266869273223e+00 8.6595124646142926e-02 4.9572607385358598e+00 0 1 0
593 1 4.7682879223585735e+00 2.6371404604105666e+00 7.6658027419501700e+00 0 0 0
62 1 4.7071708964061809e+00 4.5280909044811590e+00 5.8054970953564737e+00 0 0 0
1370 1 7.4669272553973398e-01 9.8385432601446454e-01 9.1725817400146834e+00 0 1 0
684 1 4.5243547590585118e+00 4.4709592124437592e+00 8.9370757907228349e+00 0 0 0
246 1 9.7066721463136429e-01 1.4678106328354492e+00 8.2441551693600132e+00 0 0 0
572 1 2.0098609038556763e+00 4.7166182662899976e+00 8.1879207963643470e+00 0 0 -1
221 1 1.9711435696119362e+00 1.2279577269788302e+00 8.5921222678456122e+00 0 0 0
3549 2 2.2546284241667789e+00 5.7547517052633534e-01 9.2055835806005302e+00 0 1 0
719 1 4.3998141155668415e+00 3.0223727457159499e-01 6.3659343087910001e+00 0 0 0
681 1 1.5577021634557124e+00 3.8869087930980650e+00 8.7432965782442675e+00 0 0 0
4289 2 2.3079337039426298e+00 4.6989938532127740e+00 7.3378065183532017e+00 1 0 -1
271 1 2.9714039486168837e+00 8.0235181387156951e-01 8.7623446609986182e+00 0 0 0
1149 1 4.0802556942933208e+00 1.0370798140592290e+00 9.2704197431785929e+00 0 0 0
227 1 7.6930019127373095e-01 2.0669353063600409e+00 9.3873616028933533e+00 0 0 0
912 1 4.5567919353484543e+00 1.8952363803725640e+00 6.9660788151134838e+00 0 1 0
3573 2 5.9041203557882960e-01 2.2433000576257718e+00 8.4086941219896225e+00 0 1 -1
3921 2 1.4130678033609827e+00 1.6999952626526134e+00 8.9410390789486840e+00 0 1 -1
758 1 3.6706530435109377e+00 4.4694642333333947e+00 5.7619127476662912e+00 0 0 0
201 1 2.2117016803011138e+00 3.1278360451413021e+00 8.8950101938998891e+00 0 0 0
209 1 1.1143431858192621e+00 2.8663921211014509e+00 8.7949981016598020e+00 0 0 0
3589 2 1.7320837256314545e+00 3.1708147230625308e+00 8.1317395043633560e+00 0 0 -1
353 1 1.9385522934968664e+00 2.2298995933091090e+00 8.5191434263941783e+00 0 1 0
843 1 2.7222868320936469e+00 1.7603151158729169e+00 9.1601287909411795e+00 0 1 0
605 1 3.6368052977447491e+00 1.6420103139619910e+00 8.5297222930661043e+00 0 0 0
1177 1 4.0385570537182831e+00 2.8347735051665501e+00 8.6880251808856030e+00 0 0 0
1073 1 3.0232544603948184e+00 2.5589219572696198e+00 8.4892893176247153e+00 0 0 0
3815 2 3.4801387038503031e+00 2.3733185335411435e+00 9.2414417355139786e+00 0 0 0
247 1 3.5838210181694867e+00 3.8622524958127897e+00 8.3765952421387304e+00 0 0 0
2552 1 5.2802150792826985e-01 3.7347638335207805e+00 8.9429292865658390e+00 1 0 -1
3186 1 1.3379558560858311e+00 1.3117280413148563e-01 9.1583274538760548e+00 1 0 0
3528 2 4.2588429890430248e+00 9.4684263010471870e-01 8.4456656095794376e+00 0 1 -1
3561 2 4.1286820464999403e+00 3.6879903697567493e+00 9.0596879552813157e+00 0 0 0
162 1 2.6165152427971741e+00 4.1442292535146130e+00 8.9078218890830794e+00 0 0 0
1699 1 4.5840341153732158e+00 7.8852488340735782e-01 5.3410234447941063e+00 0 0 0
3515 2 3.9786272470929113e-02 1.0988753662346745e-01 7.7519190862897069e+00 0 0 1
1052 1 1.8416178080950560e+00 4.5888366606957947e+00 9.4978570427426323e+00 0 0 -1
960 1 2.5910709482931935e+00 1.1968613918184545e-01 6.3397372984932394e+00 0 1 0
37 1 1.4619063433189179e+00 3.3194727277224310e+00 9.6315268582817950e+00 0 0 0
3466 2 1.7885604587548709e+00 4.6840936703822571e+00 6.0922192767757970e+00 0 0 0
1064 1 4.1451499177376044e-01 4.4123893112077530e+00 7.3182514034945498e+00 0 0 0
3932 2 3.1133668833657739e+00 1.0797245303565273e-01 8.2847187189314102e+00 0 1 0
1202 1 5.0800408484306852e+00 4.6985213506582113e+00 6.7654652869921534e+00 0 0 0
105 1 4.9462243053518975e+00 1.9247620992606429e+00 5.7814061873979936e+00 0 0 0
1126 1 5.0904656614319421e+00 3.4855371617485593e+00 5.6077571454076498e+00 0 0 0
288 1 1.3488677800709075e+00 2.8440401350926520e-01 4.8340546316004636e+00 0 1 0
1219 1 4.5739902711679878e+00 1.7323909293840400e+00 4.8655306275467511e+00 0 0 1
118 1 7.6475209879918260e-01 5.3187360985980652e+00 5.7187642980225195e-01 0 0 0
3702 2 1.2738271394671092e+00 5.3693152126565948e+00 1.3427581186006889e+00 0 0 1
3019 1 5.7785233940974567e-01 5.9738127941931598e+00 4.7987189336031610e+00 1 0 -1
4051 2 7.8584643805113952e-01 6.3962444502516522e+00 5.2885202908102213e-01 1 0 0
203 1 3.1415369901000108e+00 8.8667326805045050e+00 4.6230865148197582e+00 0 0 1
790 1 1.5465293203538037e+00 6.1390476411425468e+00 8.5862408776879207e-01 0 0 1
992 1 2.5875329401667138e+00 5.9459837508091757e+00 7.6119931324004408e-01 0 1 1
1094 1 4.9694528373132796e+00 5.6398387954113680e+00 3.5252551805442214e+00 0 0 1
1318 1 3.3540911663450732e+00 4.9418535145008553e+00 2.6767284835024232e+00 0 1 0
4053 2 3.6553939653311112e+00 4.8784149223846169e+00 1.7872508878848232e+00 0 0 1
616 1 2.6685892186767153e+00 6.7978589388811672e+00 4.7756016306209084e+00 0 0 0
92 1 4.2559187629798609e+00 5.9923430620835214e+00 3.7039579937839889e-01 0 0 0
787 1 3.5604093313819662e+00 6.1801015425632064e+00 1.0932875659859138e+00 0 0 1
3841 2 4.4988783006168633e+00 6.3075430653344862e+00 1.1625491335964691e+00 0 0 1
39 1 9.2761816594062152e-01 9.4177292154704126e+00 1.1234866372610623e+00 0 0 0
1037 1 5.3037462141516745e+00 8.1713817280085070e+00 1.4889641406994381e+00 0 0 0
1210 1 5.0085480404076117e+00 6.2111288543592229e+00 1.8271556640253075e+00 0 0 1
780 1 1.2173454146927094e+00 7.1501740940019944e+00 1.0144967999385650e+00 0 0 1
2977 1 3.6520734869699911e+00 5.1908376221056463e+00 8.9406303353710992e-01 1 0 0
1104 1 4.7131743113704028e+00 8.7187896408364942e+00 2.2264171637768984e+00 0 0 0
128 1 2.2351782781827545e+00 7.0802384165422367e+00 7.6315931727482700e-01 0 0 0
1429 1 5.1583691097568396e+00 8.9333260577151474e+00 7.7945212366823624e-01 0 0 1
3524 2 2.3485447243536814e+00 8.2670437498072680e+00 4.6928250266899063e+00 0 0 0
1207 1 5.3018243716052158e+00 6.1710638553607051e+00 7.5144385340859299e-01 0 0 0
3071 1 1.6980116829433598e+00 8.1127563970667556e+00 4.1596607139522375e+00 1 0 0
785 1 3.2282938808022283e+00 7.2946122052791305e+00 1.1226344533068335e+00 0 0 1
555 1 3.2057954536852824e+00 6.7163594038221346e+00 2.8182228095198120e-01 0 0 0
927 1 4.1821978231836416e+00 6.9994126897988291e+00 8.1308071410736127e-01 0 1 1
3713 2 5.0393770323210356e+00 5.3611461441086412e+00 4.1860881950070011e-01 0 0 1
4192 2 4.8263598709623592e+00 5.1530592074584769e+00 4.3450821052747779e+00 0 1 0
211 1 1.4018140790024012e+00 8.1581589316870211e+00 1.3015399782362411e+00 0 0 1
654 1 4.0280471806467428e+00 9.2312894825117002e+00 4.2313721364098758e+00 0 0 0
1208 1 3.3181240011850877e+00 5.6094127311590256e+00 1.1369429916036476e-02 0 0 1
152 1 2.4635597102851841e+00 8.1835367756889728e+00 1.0133374588350825e+00 0 0 1
13 1 1.9472339266065393e+00 9.2256561960465344e+00 9.9814697581798617e-01 0 0 0
1143 1 3.0174349648488832e+00 9.1278527286751654e+00 7.5229013164762149e-01 0 0 1
170 1 2.4535835397458481e+00 8.6184192946899731e+00 3.6810183339984550e+00 0 0 0
3693 2 1.0993184110947956e+00 8.7203815756544891e+00 3.7258295316352572e+00 0 0 1
1320 1 4.8034578756974833e+00 6.6852235349103140e+00 3.9072650459831317e+00 0 0 0
205 1 1.8799085389585650e+00 5.1195946164809314e+00 8.2337202005177212e-01 0 0 1
695 1 3.6033808675201775e+00 8.2928011472907031e+00 7.8150524218795037e-01 0 0 1
796 1 4.1680042284808927e+00 9.3437283239492821e+00 7.8874255958666584e-01 0 0 0
3646 2 4.5466588553152389e+00 8.6375488273182413e+00 1.2633962702478323e+00 0 0 1
274 1 4.8395915444396049e+00 8.7282524407543267e+00 3.9852817064893480e+00 0 0 0
425 1 1.1684554927515423e+00 8.9398331465215541e+00 4.5501471981820041e+00 0 0 0
107 1 5.0620284122033832e+00 5.3805378708698388e+00 2.3795872847961164e+00 0 0 0
3149 1 1.1685511096351062e+00 5.2076569459816744e+00 2.2195528079056164e+00 1 0 1
4201 2 1.0498825519515829e+00 6.1121430629975215e+00 2.3603396685052829e+00 1 0 0
1118 1 3.5525963478510589e+00 8.4019880325664822e+00 3.6261310178862152e+00 0 0 0
3210 1 9.6714186113498912e-01 5.2808102011321170e+00 3.2344336492096875e+00 1 0 1
100 1 1.9693765655052264e+00 5.6215967347148714e+00 1.7113465025899357e+00 0 0 0
361 1 1.8012160351886193e+00 6.0236026131663474e+00 2.8141518903777718e+00 0 0 0
4273 2 2.5604773329678916e+00 5.9878455221841271e+00 2.3417636940523079e+00 1 1 0
3014 1 2.2903944932124727e+00 5.1120836156400191e+00 2.6020932517236739e+00 1 0 0
411 1 3.0942623144381343e+00 5.4670027304800017e+00 1.7532766654987491e+00 0 1 0
3195 1 4.1017888561184881e+00 5.5252263593607625e+00 2.0116170465618368e+00 1 0 0
21 1 3.4002293926037117e+00 6.2169528502770044e+00 2.3285741204831192e+00 0 0 0
1058 1 4.4646871635829326e+00 7.3628039543649280e+00 4.7291928317999687e+00 0 0 0
617 1 5.0748613169970129e+00 7.1122726432338448e+00 1.3404977263098790e+00 0 0 0
32 1 2.8466360051099029e+00 7.6930728583362376e+00 1.6643126168483194e-01 0 0 0
3167 1 8.0830377153217126e-01 6.5512621059756713e+00 3.0878307351625689e+00 1 0 0
460 1 4.6682451037186086e+00 5.4078156287807948e+00 1.1582556078361554e+00 0 0 1
701 1 1.2223421500509826e+00 8.6943353701842998e+00 4.5157174954258561e-01 0 0 1
4142 2 1.4229419021873553e+00 7.4336886979411334e+00 1.8076799372051353e+00 1 0 1
187 1 1.5126578029073960e+00 7.2512118518964686e+00 2.7160937934615261e+00 0 0 1
574 1 2.7407413168876165e+00 6.5530849741375956e+00 1.6658715196641969e+00 0 0 0
113 1 1.7008202271655382e+00 6.6203656210530308e+00 1.7463535769771956e+00 0 0 0
776 1 2.3133075176977309e+00 7.5472652720343492e+00 1.9586196859217277e+00 0 0 0
178 1 2.4901782539429873e+00 6.7600546578116383e+00 2.7546963781338567e+00 0 0 0
109 1 4.1276480031292895e+00 7.8229856609139770e+00 1.6334048851122327e+00 0 0 0
2994 1 3.3515331835287068e+00 7.3542483624632506e+00 2.3298866851386557e+00 1 0 0
693 1 4.1449730286416866e+00 6.8154735906968558e+00 1.9156840017084382e+00 0 0 1
759 1 4.1655126192333602e+00 6.9346985855636198e+00 3.0115035988430905e+00 0 0 1
3086 1 1.0200946505758670e+00 8.0814276435005148e+00 2.2749813094797013e+00 1 0 0
3462 2 1.3710318441807319e+00 8.9523055833550220e+00 1.7709105875159508e+00 0 0 0
96 1 2.2016406469222249e+00 9.2181931126451513e+00 4.5594030508465870e+00 0 0 0
1026 1 3.9302344953332282e+00 8.1948228373608440e+00 4.5170863495125255e+00 0 0 0
108 1 1.2145259253675813e+00 9.4048010634328811e+00 2.7668855118275872e+00 0 0 0
4174 2 3.1318401198858838e+00 8.5354878704902326e+00 9.6333059622140185e-02 1 0 1
2544 1 1.7016083320025897e+00 8.5377295621891403e+00 2.9609892117968291e+00 1 0 0
922 1 2.8391551740128627e+00 8.2848178338489156e+00 2.7589611669452365e+00 0 0 1
2987 1 2.8659469150856527e+00 9.3224767861116131e+00 1.8062409387082672e+00 1 0 0
20 1 2.1136838792496344e+00 8.5634658512292408e+00 1.9977523188145059e+00 0 0 0
2912 1 2.3072137827903285e+00 9.3710471072320782e+00 2.7815018919614807e+00 1 0 1
619 1 3.1622585288119018e+00 8.3370811724059717e+00 1.7851828803986738e+00 0 0 0
1138 1 4.0290876568869596e+00 8.1181382310688655e+00 2.7165553385625740e+00 0 0 0
692 1 3.8449640205676308e+00 9.0653728950854049e+00 1.7427914489930656e+00 0 0 1
1361 1 3.4163372913294827e+00 9.1865264643627960e+00 2.7175758872253484e+00 0 0 0
752 1 4.3539137855895618e+00 9.0587226417205571e+00 3.1518031922362337e+00 0 0 1