LAMMPS data file via write_data, version 12 Dec 2018, timestep = 3300000

4320 atoms
2 atom types

0.0000000000000000e+00 1.9309999999999999e+01 xlo xhi
0.0000000000000000e+00 1.9309999999999999e+01 ylo yhi
0.0000000000000000e+00 9.6549999999999994e+00 zlo zhi
9.6549999999999976e+00 0.0000000000000000e+00 0.0000000000000000e+00 xy xz yz

Masses

1 1
2 1

Atoms # atomic

2197 1 3.4260227014289413e+00 1.7000720235624331e+00 2.8306244932666194e+00 0 1 0
1458 1 3.6116955454408965e+00 1.3988147556167108e+00 1.5287209149527609e-01 0 0 0
1160 1 4.4598815013400781e+00 1.6793065040167512e+00 1.4524063268173908e+00 0 0 0
235 1 1.9682988863084776e+00 7.5970945825907144e-01 4.0919988811394843e+00 0 0 0
580 1 3.4778150556729668e+00 1.7045780605610088e+00 3.9355064734119645e+00 0 0 0
1062 1 1.6399139027830603e+00 1.0519767350602807e+00 3.0340635987715432e+00 0 0 0
3865 2 3.6178660261790130e+00 1.8372896542369184e+00 9.1335996521005614e-01 0 0 0
3946 2 4.8564133085566858e+00 2.5182077759351693e+00 1.0325062709226347e+00 0 1 0
906 1 5.6034889971711710e+00 3.8255283701304466e+00 3.1999222602824746e+00 0 1 0
1676 1 2.5234342931926639e+00 1.7560555865948413e+00 4.3569919264136185e+00 0 0 0
1696 1 6.9520726714806482e+00 4.7224356760515454e+00 4.2130250918711400e+00 0 0 0
4116 2 1.5005738989807709e+00 1.6449309256882383e+00 2.3726260042503591e+00 1 0 -1
664 1 2.0705986135136660e+00 3.0284013393028295e+00 1.2739115523756559e+00 0 0 0
1295 1 2.6302926955189183e+00 2.2606848134109706e-01 1.0887062405933763e+00 0 1 0
1472 1 6.3309381560207925e+00 3.9339994639172495e+00 2.4942743563221188e+00 0 0 0
722 1 1.8844999451266884e+00 1.3156187149553054e+00 4.3863773854411736e-01 0 1 0
3756 2 1.9579196108623187e+00 1.1773400414343735e-01 1.6688869184358714e+00 0 0 1
1855 1 4.6696509159021442e+00 5.6109010662016923e-01 1.6840659848946107e+00 0 1 1
1351 1 4.0626104277133299e+00 2.3697044282868984e+00 2.3680073468168588e+00 0 1 0
2946 1 4.6166693823477249e+00 1.0298019091131743e+00 5.1344447256773906e-01 0 0 0
987 1 2.0248071170716484e+00 2.2946541042726212e+00 5.2663806468759078e-01 0 0 0
3587 2 7.1903615367214844e+00 4.7761348015701657e+00 1.1452442655780783e+00 0 0 0
548 1 1.6202659513001043e+00 2.3109532184306625e+00 4.1127992696111813e+00 0 0 0
1870 1 5.2671531941475935e+00 2.6283998025543722e+00 2.6086927515470865e-01 0 1 1
612 1 3.2432818890339492e+00 4.6769754389661413e+00 1.4533808797915162e+00 0 0 1
1858 1 4.5641470631810215e+00 2.8774477541904990e+00 3.8226248189203416e+00 0 1 0
1615 1 4.4586728580570458e+00 2.0207304881648600e+00 3.6073012578442037e-01 0 0 1
2523 1 3.5472645340944631e+00 4.5250915729380301e+00 3.3928000924056994e+00 0 0 0
1636 1 2.5930240663509094e+00 4.3650081315319476e+00 1.2657444551436620e-01 0 0 1
3665 2 4.7811471701327148e+00 1.2436323425441393e+00 3.7841296218939573e+00 0 1 0
568 1 1.8619111423158530e+00 1.8550819516548007e+00 1.4555795781922976e+00 0 0 0
1538 1 5.0386790222724027e+00 1.0158238118844585e+00 2.9500754416406041e+00 0 0 0
566 1 3.3565142506940027e+00 1.9178200598943242e+00 1.7818404813471873e+00 0 0 0
537 1 4.2417692420754740e+00 3.3251659582053090e+00 2.0802607528461325e+00 0 0 0
1504 1 4.9778624207107143e+00 3.9739106561665003e+00 4.0553965697862298e+00 0 0 0
124 1 1.7248113132116454e+00 2.1479703431035997e+00 3.1198419374557007e+00 0 0 0
508 1 3.4158045330648665e+00 3.6601320868545222e+00 2.7257747803549019e+00 0 0 0
889 1 4.0184804691447971e+00 7.2487034636813963e-01 4.3792399699487863e+00 0 1 0
2098 1 5.3479381546980225e+00 4.3578009496737486e+00 1.1873361417029398e+00 0 0 1
1950 1 4.0957163223958144e+00 9.1098487839118414e-01 3.4308930753360207e+00 0 0 0
3602 2 2.4588038290469103e+00 7.9464844698492709e-01 2.5950085620707126e+00 0 0 0
1184 1 3.5824516145895213e+00 4.3884061053422370e+00 4.5349460677409317e+00 0 0 0
1359 1 2.7544157349384024e+00 8.2618598529450771e-01 8.8525613442107978e-02 0 1 1
4129 2 5.6650133507998213e+00 4.5483352407021984e+00 2.6801995290087737e+00 1 0 1
2513 1 5.3620347778352695e+00 1.7296384499547059e+00 8.8200958353741155e-01 0 0 0
3468 2 5.1820548714319443e+00 1.6841426217036426e+00 8.4089993254923001e-02 -1 0 1
3884 2 1.9086127743212997e+00 1.5753213560462185e+00 3.8083390214271167e+00 0 0 1
567 1 3.3254892001940468e+00 3.4846675943464560e+00 9.8772234870467449e-02 0 0 0
4122 2 3.3063152730012568e+00 1.1486484793035781e+00 4.5987479558918798e+00 0 0 0
1194 1 2.5718010165057255e+00 1.2872285870250142e+00 3.3890934972346769e+00 0 1 0
1049 1 5.6367903783707511e+00 2.9340527293445242e+00 4.4973864768170868e+00 0 0 0
1573 1 3.6634827813878603e+00 2.6937347037210522e+00 3.2761312440197932e+00 0 0 0
635 1 4.0193779199541160e+00 4.4080890168109432e+00 2.0970070610068952e+00 0 0 1
1519 1 5.4166717438127492e+00 1.9910734877832401e+00 2.8699869051115865e+00 0 0 0
2076 1 5.8856073750991191e+00 3.0506277216570385e+00 2.4487828471152602e+00 0 0 1
1425 1 5.8080162593160223e+00 2.8488120956186558e+00 3.4618562386866065e+00 0 1 0
1721 1 4.0378409112564810e+00 2.5915214029368925e+00 1.3730019698903932e+00 0 1 0
1271 1 3.9149816072614101e+00 3.7049428556954274e+00 1.1520211101764239e+00 0 1 0
1040 1 1.4064485128111437e+00 7.4279625390746296e-01 1.1481063187776914e+00 0 0 0
4267 2 3.5320213265481852e+00 3.5589248598793124e+00 4.6865398894066139e+00 1 0 1
1682 1 5.3536028206965920e+00 4.8071515159638594e+00 3.4211782238745920e+00 0 0 0
2421 1 4.8735369876683308e+00 2.9426069901570080e+00 2.8752260448185831e+00 0 0 0
386 1 2.3222505403857969e+00 2.5423673869934810e-01 3.2827088179387789e+00 0 1 0
1007 1 5.7850664275102426e-01 7.1787901497625162e-01 3.3562791954814477e+00 0 0 0
655 1 2.4700161170757053e+00 4.0546160475249629e+00 3.0522432405317113e+00 0 0 1
1191 1 1.8570064892251046e+00 3.1401729101731677e+00 3.5460339247177588e+00 0 0 0
3707 2 5.6120261601403438e+00 4.4833669878523779e+00 2.8101390400256021e-01 0 0 0
1678 1 5.1812121327665555e+00 3.7269636564557125e+00 2.2189611207809588e+00 0 0 1
1798 1 1.3351649987154719e+00 4.1275282473299529e-01 1.6419293815160590e-01 0 1 0
2108 1 3.8166279470301672e+00 3.5786914633292568e+00 3.8214788058781934e+00 0 0 0
952 1 6.0802245888692914e+00 3.5782469594754600e+00 1.5486324400363520e+00 0 0 0
3964 2 4.6236629513679226e+00 4.0679295681851180e+00 1.5375064658236395e+00 0 1 0
767 1 3.7154808483063086e+00 9.3874160263091389e-01 1.1641951570872808e+00 0 1 0
1506 1 4.6605074871670729e+00 3.9920357968518503e+00 5.0273145755976512e-01 0 0 0
4263 2 3.1492583018554501e+00 4.5438296746496629e+00 2.6742032575354142e+00 1 0 0
3856 2 2.1734696274394740e+00 1.0270813085616726e+00 1.2458401157975272e+00 0 0 0
1117 1 2.2329945919810963e+00 3.3483724459626423e+00 2.2483059906820288e-01 0 0 1
1785 1 4.1418760483520538e+00 1.1653680999828326e+00 2.2626564917996568e+00 0 1 0
2164 1 1.1230971667700804e+00 1.3320348203421224e+00 3.9552436080483608e+00 0 0 1
1644 1 6.2086643227023366e+00 3.8079572816331253e+00 4.1183552698486352e+00 0 0 0
1906 1 3.0367385460030838e+00 5.5567229191210044e-01 4.0939305028124888e+00 0 1 0
1098 1 5.6008762778977710e+00 3.6370975427258951e+00 5.3809171806868461e-01 0 0 1
4041 2 4.7292012130590457e+00 1.7684444403493607e+00 2.3654521901801528e+00 0 1 0
505 1 9.1905467452005518e-01 1.5948344684459337e+00 1.6600372145198816e+00 0 0 0
1913 1 9.2713326619696956e-01 2.0375039519145996e-01 4.3045500941027726e+00 0 1 0
1622 1 6.3476837259486274e+00 4.5431957123415527e+00 3.4041050151750341e+00 0 0 0
1071 1 2.8626547262754358e+00 3.3227321339505282e+00 3.8098005961231154e+00 0 0 -1
1535 1 4.5150106237293635e+00 3.9488713363023975e+00 3.0620767748086317e+00 0 0 0
2132 1 5.2651138692662682e+00 2.1006671732862010e+00 3.8646469010561617e+00 0 0 0
1081 1 2.4659474415190723e+00 2.9726605649888014e+00 2.6925260041338759e+00 0 0 1
30 1 2.6907047592617683e+00 4.2900170111549958e+00 4.0600065947123349e+00 0 0 0
744 1 3.6836723934658933e+00 4.4923302280507658e+00 3.6127033970666894e-01 0 1 0
2101 1 5.0271336842378744e+00 2.4593682917837998e+00 1.9452227493402423e+00 0 0 1
991 1 4.4683219666014153e+00 1.9218853596124004e+00 3.1969183692905725e+00 0 0 0
575 1 1.3823423510559567e+00 8.9933110833398666e-03 2.7618359470809941e+00 0 0 0
2338 1 4.4289977263057194e+00 1.4258046309288275e-01 2.7184138947894985e+00 0 1 0
1818 1 3.6473894402279727e+00 1.8161758734608244e-01 1.9592867357118875e+00 0 1 1
1147 1 2.8299662052687116e+00 9.9211120721727575e-01 1.8605547838553711e+00 0 0 1
1446 1 1.5330817427471799e+00 2.5893282342169210e+00 2.1710445313654190e+00 0 0 0
860 1 2.3592334497585843e+00 1.7895238727883744e+00 2.4057693461489005e+00 0 1 1
878 1 4.8889109305609324e+00 2.6889878187850269e-01 3.8725749831471310e+00 0 1 0
1153 1 4.3730307191516893e+00 1.7804226258520843e+00 4.3693931740741903e+00 0 0 0
3918 2 4.7959800824663790e-01 5.0886862692800494e-01 3.3780643693857454e-01 0 1 0
994 1 2.4086094281800885e+00 3.8698585262331422e+00 1.9779070624770048e+00 0 0 0
1484 1 2.8007947095500851e+00 1.5187297682273284e+00 9.0582094817009995e-01 0 0 0
3533 2 2.5999593845292259e+00 2.3214401551400767e+00 1.6215918499323374e+00 0 1 0
1103 1 5.0253073710094291e+00 9.6106200792356267e-01 4.7467338959046010e+00 0 0 0
1437 1 4.9039671106259837e+00 3.3139686399953532e+00 1.2320134342078599e+00 0 0 0
1647 1 3.5360599618742352e+00 2.6353601285682347e+00 4.3707529353704784e+00 0 0 0
814 1 2.7009973476655942e+00 2.3521586183971555e+00 3.4951437106836116e+00 0 1 0
555 1 6.9862172586130522e-01 7.5772794779991204e-01 2.2824720624080750e+00 0 0 0
1051 1 2.8460371006437288e+00 3.7165253752713197e+00 1.0256027999032351e+00 0 0 0
3784 2 1.3477212075184146e+00 3.7775522136919165e-01 3.5517953923523300e+00 0 1 0
1462 1 3.2101901881060488e+00 2.5277897672674734e+00 6.6643233131359503e-01 0 0 0
3590 2 3.1410739907610097e+00 2.4593619937514655e+00 2.5721183520104591e+00 0 0 -1
1511 1 3.1718517269087738e+00 2.9953498274826864e+00 1.8221610604130241e+00 0 0 0
1357 1 1.8182254810293013e+00 9.1475371993812693e-01 2.0549106673270821e+00 0 1 1
1651 1 3.3055897554595264e+00 6.0299997545374373e-01 2.9041106740072129e+00 0 0 1
1965 1 5.8288042553950072e+00 2.5805079923058618e+00 1.3051968837358512e+00 0 0 0
3703 2 3.2904673675603320e+00 3.8534156394977206e+00 1.7923907494047291e+00 0 0 0
1470 1 6.3516888599909880e+00 4.3861177539591267e+00 8.0757304125976570e-01 0 0 0
1072 1 6.0340942138723914e+00 4.7822673220013154e+00 1.8091228707133309e+00 0 0 0
1539 1 4.2528442355277098e+00 3.0142544283636075e+00 4.8767846871264825e-01 0 0 0
3460 2 4.8454566410661952e+00 2.6658119970034844e+00 4.6670587899042904e+00 -1 0 0
1455 1 5.4212637328705569e+00 1.4430911319262369e+00 1.9516007976686862e+00 0 0 0
1621 1 5.6442352620705520e+00 4.6932850437211728e+00 4.4437675329529398e+00 0 0 0
1166 1 7.9568353345143306e-01 1.4214505567406730e+00 4.9851841282659620e-01 0 0 1
1856 1 3.7473768678476973e+00 2.7235195931686534e-01 1.9435381906692892e-01 0 1 1
870 1 3.8069484554282651e-01 7.2068400640011165e-01 1.1992235650571783e+00 0 1 1
1572 1 5.0381079208676187e+00 4.7491573701055145e+00 2.1139973377776515e+00 0 0 1
1030 1 4.3867458377732511e+00 3.4414703323905416e+00 4.8116772576663553e+00 0 0 0
1016 1 3.2721677525659381e+00 3.7148635642117966e+00 8.1158218773010500e+00 0 0 -1
538 1 3.1524435977199228e+00 4.6972549139814251e-01 6.3724245638109220e+00 0 0 -1
2417 1 6.0015861659654082e+00 2.7212214421339134e+00 6.4553617963351329e+00 0 1 0
1764 1 4.2664677167731107e+00 3.4636854640471308e+00 9.1626693707383460e+00 0 1 -1
1626 1 4.5675129544612449e+00 1.9548006877259101e+00 8.1024898210317886e+00 0 0 0
2135 1 2.0928926691535334e+00 3.0941917072993115e+00 6.6968359746574313e+00 0 0 0
3634 2 2.8088100344357851e+00 1.9156583020476898e+00 6.6286313759058819e+00 0 0 0
2072 1 1.2106209337278475e+00 3.0392717030087757e-01 7.8099662869033875e+00 0 0 0
4076 2 4.2750211728157117e+00 9.2098508498221199e-01 9.3145825527034631e+00 0 1 1
4130 2 5.4775002879034762e+00 3.9869251080108952e+00 7.7892774498651915e+00 0 0 -1
628 1 4.6667000517605866e+00 4.5551269731348709e+00 5.0243590363808748e+00 0 0 0
1617 1 2.9806525541884183e+00 2.6338479848666378e+00 8.4990861282680932e+00 0 0 0
1187 1 1.7272903884749229e+00 1.1639776713164933e+00 5.8900279767252091e+00 0 0 0
1091 1 4.0324665880329595e+00 4.2046528127372689e+00 7.6356922722611005e+00 0 0 0
3796 2 6.2873290181140575e+00 3.9094897042536676e+00 8.7976097200869177e+00 0 1 -1
517 1 3.2974706193842165e+00 4.2606487076260402e+00 8.9999193465948757e+00 0 0 0
1085 1 2.3370776173671963e+00 2.5868678541501211e+00 4.8941454616858255e+00 0 0 0
227 1 1.6159168306770608e+00 2.1637145901742767e+00 8.3103624087157115e+00 0 0 0
1013 1 2.4559856148261847e+00 4.8235377276791178e+00 8.8372340386977779e+00 0 0 -1
3723 2 3.4816210984334521e+00 3.3312754612830555e+00 8.8264446564930132e+00 0 0 0
3658 2 7.6434141738053163e-01 3.2558278621807418e-01 8.5836011315989271e+00 0 1 -1
1429 1 3.0923831649961069e+00 4.7173896784527827e+00 7.9690073364040437e+00 0 0 -1
1318 1 1.1257068680110187e+00 1.1596024135196741e+00 8.4013968457906127e+00 0 1 0
1646 1 5.1577851020125234e+00 2.8979414266576540e+00 5.5271193194276940e+00 0 0 0
4101 2 4.4826724637886146e+00 2.4074972338473049e+00 6.0056558850764858e+00 0 0 -1
2053 1 6.2412511457011774e+00 3.4572356607265853e+00 5.6582293651127786e+00 0 0 0
3713 2 1.8587439985137819e+00 2.3883550005940575e+00 5.7564122313415584e+00 0 0 0
1606 1 2.0802994989286034e+00 3.0479324982609929e-01 6.3370443603740494e+00 0 0 0
970 1 2.7238994947603676e+00 3.8075545079836828e+00 4.9938668946117639e+00 0 0 0
3793 2 2.7832706978816355e+00 2.7527478632183464e+00 9.4630046795373310e+00 0 1 -1
1665 1 4.1952375950682743e+00 2.5049715717826859e+00 5.1878228945894023e+00 0 0 0
1001 1 3.9863418596221125e+00 2.8898689126817998e+00 8.3056268532000672e+00 0 0 -1
3598 2 1.8764499418212999e+00 3.9020031949757045e-01 7.2500885152578123e+00 0 0 0
2123 1 5.4237374576121606e+00 1.9273968332789919e+00 6.1622850877066453e+00 0 0 0
231 1 2.9958074240389889e+00 3.9045148602070414e+00 7.1209062394785665e+00 0 0 0
2196 1 5.5951194188845914e+00 4.7751360767106554e+00 5.5739211136591678e+00 0 1 -1
86 1 3.0337261323094316e+00 4.6582020489664355e+00 6.4033653548793374e+00 0 0 0
1628 1 5.7873022108020304e+00 3.4618702440552074e+00 7.2254134108318508e+00 0 0 0
56 1 6.1700633717049658e-01 9.0746618955551861e-01 9.2502182859964037e+00 0 0 -1
1654 1 4.2543206465213768e+00 1.4548612317873171e+00 5.3233242700323906e+00 0 0 0
1361 1 5.7333876043676586e+00 3.3507012834288945e+00 8.2760041554104031e+00 0 1 0
1865 1 2.6584815193720970e+00 3.4085947961901569e-01 8.7928195891091026e+00 0 1 0
1128 1 1.6333099664351511e+00 2.6415244620310785e-01 5.1546713909713189e+00 0 0 1
1561 1 3.6628680282433197e+00 2.5526235340906047e+00 9.3011714574361850e+00 0 0 -1
2232 1 5.4932673522492079e+00 3.8567217232839766e+00 4.9928317505413036e+00 0 1 0
2340 1 5.8101798358704970e+00 2.1030707865294094e+00 9.1819719040508598e+00 0 1 0
3597 2 4.0181024047908833e+00 4.0552904227166806e+00 8.5521978908489142e+00 0 0 -1
954 1 3.0997474439714363e+00 2.7525427516975163e+00 6.8151704933616628e+00 0 0 -1
1640 1 5.3747689240150578e+00 4.0338790167025191e+00 9.2383688944543110e+00 0 0 0
1630 1 2.5797699418706186e+00 1.6918469491877741e+00 8.3781030185599050e+00 0 0 0
186 1 2.5122521827576847e+00 3.1554823839913304e+00 7.7618360369892478e+00 0 0 0
3978 2 3.9858862985892838e+00 1.2615075447009410e+00 8.1311397530240104e+00 0 1 0
1499 1 3.7134275259475733e+00 1.6433035289452640e+00 8.8038303253454409e+00 0 0 0
974 1 5.0117496643367314e+00 2.7637117503040938e+00 8.7675470608045636e+00 0 0 -1
1301 1 2.8245902642181910e+00 1.3125551514725853e+00 5.9427886680344493e+00 0 1 -1
2610 1 6.5551499879784787e+00 3.8935741892832394e+00 7.7790346791231704e+00 0 0 0
617 1 4.0046716919519429e+00 3.1874350666873981e+00 6.1531123262539520e+00 0 0 0
1449 1 4.2381443568177906e+00 6.3130929403285119e-01 6.4831432165326861e+00 0 0 0
3123 1 3.2435199448723364e+00 3.0428229403486315e+00 5.3649705359393653e+00 1 0 0
1901 1 4.7292826819362190e+00 9.3743023320066732e-01 8.4260924602438880e+00 0 1 0
1396 1 4.3928641097683174e+00 1.2232543281727346e+00 7.3295515751183569e+00 0 1 0
1711 1 6.9172243945271008e+00 4.5343300938331810e+00 8.8730478133316151e+00 0 1 -1
3747 2 2.5617243854029077e+00 4.6334554267518717e+00 7.1501937549292132e+00 0 0 0
2385 1 4.1514967385202119e+00 2.2984827825805652e+00 7.0011483812218209e+00 0 1 0
4082 2 5.7478356359116045e+00 2.5925254006711507e+00 7.2811520572750972e+00 0 1 1
3577 2 3.3715091020042998e+00 2.8814885634353975e+00 7.7049361680046387e+00 0 0 -1
1175 1 3.4926740049267946e+00 1.4529545370249732e+00 6.8616596225571520e+00 0 0 0
1853 1 1.9433523170138018e+00 1.9941013332977340e+00 6.5393992450816762e+00 0 1 1
1714 1 3.6204056767094857e+00 6.0086643729344513e-01 8.8377170543637238e+00 0 1 -1
1797 1 4.4126199930433110e+00 2.8542398366086824e-01 5.2529216574088275e+00 0 1 0
1114 1 7.8991912910320683e-01 9.3561484268604123e-01 5.1575709618598298e+00 0 0 0
3849 2 4.4924067774488208e+00 2.6844067446087547e+00 9.4293010926779743e+00 0 0 0
1836 1 3.2741279361223992e+00 7.8744039962034307e-01 7.8732207339829721e+00 0 1 0
1691 1 4.8647619450613124e+00 2.9253909762393318e+00 7.6705002344988955e+00 0 0 0
1963 1 6.4640238840314819e+00 4.2203811284841120e+00 5.0123068672539928e+00 0 0 0
1183 1 2.5750025610110208e+00 3.4977230038759868e+00 8.8849126525471274e+00 0 0 0
1569 1 2.7175833436328061e+00 9.6591145216932808e-02 7.2901499717536362e+00 0 0 0
1848 1 4.7875247312890821e+00 3.8851152027940015e+00 5.8263230729063649e+00 0 1 0
1021 1 5.8731980733659874e+00 4.5838246500642406e+00 8.4152519828940804e+00 0 0 0
1178 1 3.9116883797349535e+00 4.2467910467608618e+00 6.5535790415885566e+00 0 0 0
1057 1 2.0060707103126303e+00 3.3258390270555096e+00 5.6086485184757304e+00 0 0 0
1349 1 3.4780493430054236e+00 7.7313398518662368e-01 5.2875008474723044e+00 0 1 0
1089 1 2.1769580129257919e+00 4.1218609430553235e+00 8.0649039810698859e+00 0 0 0
4175 2 6.6170697720192901e+00 4.3613041303536386e+00 5.8759178538919992e+00 0 1 0
784 1 5.1490195728308485e+00 1.9810189629876154e+00 7.1445986448604790e+00 0 1 0
3757 2 2.9292245605887177e+00 1.1598211756647725e+00 8.8975452122480085e+00 0 0 0
961 1 4.7857375109495699e+00 4.0267193460513431e+00 6.9865056114202941e+00 0 0 0
1683 1 3.2566041567096087e+00 1.7939928675728922e+00 5.1166033320753312e+00 0 0 0
1199 1 2.4918867041630044e+00 9.6559044533183880e-01 5.0235577191194958e+00 0 1 0
2057 1 4.5106540263507657e+00 1.5916279320033588e+00 6.3645159584828228e+00 0 0 0
1078 1 2.6857161318952381e+00 2.3925203858377655e+00 5.9244750154110362e+00 0 0 0
968 1 1.1869220946765415e+00 1.8348139285770002e+00 9.2355198693133769e+00 0 0 0
2023 1 5.8911173444453722e+00 3.1469697510557642e+00 9.2208350351094150e+00 0 0 -1
1514 1 3.9794170999368541e+00 3.3209098197695015e+00 7.1455612703601670e+00 0 0 -1
670 1 3.7382883399134972e+00 3.9778906796514875e+00 5.4760422925382271e+00 0 0 0
1453 1 2.4541386952579032e+00 2.1486372961728679e+00 7.4578119656267754e+00 0 0 -1
1591 1 1.4224876485416706e+00 2.5662133134361320e+00 7.4072618117082341e+00 0 0 0
3518 2 5.3209934250384128e-01 1.2200416435334180e-01 7.3042783960359081e+00 0 1 0
1660 1 4.7770876062178793e+00 3.7835285601606508e+00 8.3374684417923568e+00 0 0 0
624 1 2.7163773382639267e+00 1.8832272738600500e+00 9.4768084449615078e+00 0 0 0
3016 1 2.8752132297658894e+00 3.6103234805579860e+00 6.1767857881810011e+00 1 0 0
1904 1 5.1954799258599502e+00 1.8992766446184874e+00 5.0429976596381136e+00 0 1 0
1242 1 2.0317220175221733e+00 2.5856695548918216e+00 9.1375730930994088e+00 0 1 -1
4064 2 3.5617417768586543e+00 5.9841982008911165e-01 7.0657460149326283e+00 0 1 0
1529 1 5.6815033913790938e+00 4.0961174194334156e+00 6.3741590042461258e+00 0 0 0
704 1 2.1565926769977670e+00 8.2080183605582313e-01 7.9754934463136360e+00 0 0 0
948 1 1.1765656544977834e+00 6.0626475362713483e-01 6.8169824653559887e+00 0 1 0
899 1 2.3879836234035996e+00 1.0368112952800073e+00 6.9503197461279003e+00 0 1 0
2044 1 5.0846662958532480e+00 9.6580910310689372e-01 5.7783482615975688e+00 0 0 0
1531 1 4.7337128361337886e+00 1.7988593387291938e+00 9.0787443367498089e+00 0 0 0
4241 2 1.1842566869085265e+00 4.6192742708836476e-01 5.9495396180637599e+00 1 0 -1
1435 1 3.6939674088396877e+00 2.1555046801756004e+00 6.0525109403316604e+00 0 0 0
1634 1 5.9689469717503947e+00 4.5201641255595231e+00 7.2877105756099425e+00 0 0 0
3868 2 2.9277255505978124e+00 1.4713851472031647e+00 7.5088877913410323e+00 0 0 -1
1050 1 3.5335482125410733e+00 2.0124963053298330e+00 7.8404113025955189e+00 0 0 -1
1428 1 4.3505602332904241e+00 4.5800999327471823e+00 9.2373762011003606e+00 0 0 -1
1146 1 1.5596955688854024e+00 1.4082579837361251e+00 7.4236804261934859e+00 0 0 0
659 1 9.3638508967950673e-01 1.8392822731989167e+00 5.6013832673294939e+00 0 0 0
1095 1 4.9612916639975131e+00 2.9318465994591989e+00 6.5573500404364751e+00 0 0 0
4177 2 2.3708305508632113e+00 1.7551260159412982e+00 5.2891941494486092e+00 0 1 0
4300 2 3.6856110884595101e+00 1.2607314565582588e+00 5.9160308830011941e+00 1 1 0
1107 1 1.5762762104713346e+00 1.5005707569713223e-01 8.8261106413800405e+00 0 0 0
3728 2 6.8426144681896872e+00 4.6758004656366055e+00 7.0594271862511544e+00 0 0 0
1083 1 1.9559113774777077e+00 1.1071204890352750e+00 9.0250224754828281e+00 0 0 0
2270 1 4.5306579569737258e+00 6.0483390770955651e-02 9.1899625503260829e+00 0 1 -1
3924 2 5.4029086834884339e+00 1.4693372756375271e+00 8.6351976647106437e+00 0 1 -2
1618 1 6.6417951619463267e+00 3.8766538472857750e+00 6.6307463098275079e+00 0 0 0
1722 1 4.0918627112816877e+00 2.4916413765237830e-01 7.7558417063890674e+00 0 1 0
1627 1 5.6700613626466323e+00 2.2419893417055574e+00 8.0692411702910345e+00 0 0 0
3640 2 3.4726799269928081e+00 4.7535855316934521e+00 7.2204074317659970e+00 0 0 -1
1624 1 4.9272894920368042e+00 4.7178830976226864e+00 7.8202465486807782e+00 0 0 0
1379 1 6.4351201778786944e+00 3.9648268935117494e+00 9.5988920051997617e+00 0 1 0
1403 1 2.7068546902273916e+00 2.5251610894464354e-02 5.4605164733197231e+00 0 1 0
662 1 1.6096927524938531e+00 3.1793814986346676e+00 8.3372272576077613e+00 0 0 0
3617 2 5.0139820935006760e+00 3.9816470454629621e-01 7.7034228469963555e+00 0 0 0
2088 1 1.3445365223800398e+00 2.6629096467598581e+00 5.0596370117087561e+00 0 0 0
547 1 8.9225416155766746e-01 1.6816483049381028e+00 6.6849093363956040e+00 0 0 0
3749 2 5.0171647359579588e+00 3.3702405925001995e+00 9.6198336902857804e+00 0 0 0
1177 1 1.6314248567956762e+00 1.5440516251130649e+00 4.8438066670772386e+00 0 0 0
763 1 4.0678654280058151e+00 7.4265115793029564e+00 3.6169244179941507e-01 0 0 0
3997 2 4.1970123215285557e+00 6.5417345246535472e+00 7.7069167234938385e-01 0 0 -1
634 1 5.3112298921714096e+00 8.0687761861832055e+00 2.5178140980066659e+00 0 0 1
1664 1 5.2287634013010411e+00 7.2535171447140225e+00 1.8677657620719039e+00 0 0 1
747 1 6.9216227099595100e+00 9.6496988695073878e+00 1.3787773239169114e+00 0 0 0
1522 1 5.0832486550667006e+00 5.6588168269399279e+00 4.1669875772367417e+00 0 0 0
972 1 6.2329002217299978e+00 6.3586544500848907e+00 3.1554935449432966e+00 0 0 0
73 1 5.3300009881926451e+00 7.1231163898081098e+00 4.7038711653179384e+00 0 0 -1
2855 1 6.9794109630857974e+00 7.2313606336477445e+00 4.6987380564044399e+00 0 0 0
1669 1 8.8440533139537614e+00 9.4663648007202053e+00 4.6489850844097802e+00 0 0 0
979 1 8.1021235032596106e+00 9.0518492174328760e+00 2.6634882157726896e+00 0 0 0
761 1 8.4013928353637688e+00 8.3391241981652140e+00 4.5089553071757011e+00 0 1 0
1094 1 5.7945159529341801e+00 7.2100397314434748e+00 2.8154346390155935e+00 0 0 0
1370 1 7.7434422470194608e+00 6.2992051322456160e+00 1.9653356464281511e+00 0 0 0
1502 1 6.8534972375684386e+00 4.9053935528767250e+00 2.4736707783385232e+00 0 0 0
90 1 3.2564720157215858e+00 5.3247232216182283e+00 4.0705095245845548e+00 0 0 0
1124 1 6.2080923920328210e+00 8.6596844436392466e+00 3.7692357549013966e+00 0 0 0
3901 2 7.7273552630893612e+00 8.1259260150261881e+00 1.6154173507357199e+00 0 0 0
1663 1 6.2659473079126498e+00 8.6174629351430347e+00 7.3089576761459907e-01 0 0 0
1637 1 4.4947619604697628e+00 6.4966472653051177e+00 4.5061416638960745e+00 0 0 0
1477 1 5.6443337739740906e+00 7.8348581726089508e+00 2.1852400753394605e-01 0 0 0
1052 1 4.5555020866055944e+00 5.6425168428916157e+00 1.8912396831284914e+00 0 0 0
1494 1 9.1238483575769926e+00 8.8184422827083395e+00 2.8274796330447338e+00 0 0 0
1164 1 3.2403929285846029e+00 6.2073495580276239e+00 3.1125138475749403e+00 0 0 0
4025 2 8.4802855740897858e+00 9.3806903770649974e+00 9.7360514902444883e-01 0 0 0
753 1 5.3445819526959202e+00 8.3322363961529184e+00 4.2592666166191826e+00 0 0 0
1632 1 6.0448046992146285e+00 5.5232991499328916e+00 3.8427399695024334e+00 0 0 0
1045 1 5.1197056681980193e+00 7.1438139184008369e+00 8.2018785587663778e-01 0 0 0
528 1 3.4534940277788482e+00 6.3248046876120085e+00 4.1937558548414184e+00 0 0 0
1121 1 2.4670731685151082e+00 4.8566718580261723e+00 2.1538215800779739e+00 0 0 1
3838 2 3.6488664982944532e+00 5.3850083565103617e+00 3.2086488150489161e+00 0 0 0
589 1 4.9717280864089934e+00 7.6380186874721128e+00 3.4227321654936613e+00 0 0 0
2106 1 7.3160996600760981e+00 7.8234489204190742e+00 8.6313712306529644e-01 0 0 1
3121 1 7.7516144357597536e+00 6.6731905597864323e+00 4.1357827430010454e+00 0 0 0
139 1 4.3690727115088359e+00 6.6958899152546278e+00 1.6232797049759904e+00 0 0 1
3885 2 7.9900341379077915e+00 7.7326395956224188e+00 3.6329983212713018e-01 0 0 1
1607 1 7.4189085670273531e+00 5.9298304636386945e+00 6.6495534170591575e-01 0 0 1
1003 1 7.5965496625292328e+00 7.7525705022137608e+00 4.0370750906349917e+00 0 0 0
561 1 6.1779725990404124e+00 6.4720137020950501e+00 4.2890451984201317e+00 0 0 0
2136 1 6.6952995661911157e+00 5.9695474156795427e+00 2.2842332931206517e+00 0 0 1
1297 1 6.9506044306076316e+00 8.5100433303054785e+00 1.6138755499258193e+00 0 0 0
1756 1 7.8475003147478422e+00 9.0801975517858917e+00 1.5554282237158787e+00 0 0 1
1188 1 6.5160701392197060e+00 5.9339258260148968e+00 1.5338184577614888e-01 0 0 1
1571 1 5.2777082487866114e+00 6.3003751532078054e+00 2.5178507518386524e+00 0 0 0
1941 1 7.0929254337850347e+00 9.2044984629855406e+00 2.4005854924362557e+00 0 0 0
1060 1 6.2043303947610591e+00 8.7706176430490359e+00 2.6704336708363257e+00 0 0 0
1460 1 4.9516987736148046e+00 4.9919087928436836e+00 2.9867841822462976e-01 0 0 0
1105 1 4.2657666067479711e+00 5.8517350198546412e+00 3.6019816243612097e+00 0 0 1
903 1 5.9288222236137793e+00 8.9868967633592174e+00 1.6843193145211193e+00 0 0 1
4283 2 4.9562107053594389e+00 7.0372964285560666e+00 2.8414917527804242e+00 1 1 -1
3971 2 6.7117957485730031e+00 5.4551486271127647e+00 3.1249565678308522e+00 0 0 0
1390 1 6.9727494956651288e+00 7.0718306360615237e+00 2.3821605802599386e+00 0 0 0
3779 2 7.2141454587039231e+00 8.8352534390071078e+00 9.2469471109421930e-01 0 0 0
1488 1 5.8551407312108950e+00 6.4046129042992650e+00 9.0963781108691544e-01 0 0 0
1880 1 7.0471267641239894e+00 5.8089039195171921e+00 3.9083449444569549e+00 0 0 0
1043 1 5.2794223619271685e+00 6.6019417971517962e+00 3.7452351693838644e+00 0 0 0
955 1 4.4241677574428584e+00 5.0079762167296087e+00 2.9181194311534595e+00 0 0 0
3684 2 6.6214261933673164e+00 7.9523356281982727e+00 1.8583788759009645e-01 0 0 0
1046 1 5.5129394712819959e+00 9.5864432120067402e+00 3.9313117281225760e+00 0 0 0
1891 1 9.3215860999259235e+00 9.5389900536602052e+00 6.8220946773679292e-01 0 0 1
1562 1 3.5270096425175161e+00 5.3709065912033971e+00 2.2517421700971005e+00 0 0 1
509 1 4.2553290563603925e+00 6.4270314731506204e+00 2.5898233239977602e+00 0 0 0
3963 2 5.2350476724386468e+00 6.4144026761950759e+00 1.5815533665255597e+00 0 0 1
1675 1 6.7261959692083284e+00 9.4318549727804868e+00 2.8480711367352535e-01 0 0 1
4066 2 5.2698502143213339e+00 9.0127809826530942e+00 1.1307343233114009e+00 0 0 0
1253 1 2.7693079040771185e+00 5.2059598451306508e+00 3.1609268038758116e+00 0 0 0
236 1 3.4337815807071981e+00 6.4070224162448204e+00 2.0837908250779740e+00 0 0 0
1395 1 4.3383051034582483e+00 8.4232108983569045e+00 2.8801562325772356e+00 0 0 1
1992 1 8.9863791316487962e+00 8.6326111939082697e+00 1.0542752718585560e+00 0 0 0
1170 1 7.7042178298333619e+00 9.5713710997299000e+00 6.5052808526788919e-01 0 0 0
3694 2 5.0773036850509463e+00 5.1569056477230060e+00 1.3008961753119799e+00 0 0 0
1023 1 4.8163511216459600e+00 5.9555643962570519e+00 8.7748897528544589e-01 0 0 0
804 1 6.2677581089661594e+00 7.8468791784530412e+00 2.1579718428085468e+00 0 0 -1
3462 2 6.7595063838718268e+00 7.9245886620116961e+00 4.2053145346416354e+00 0 0 0
141 1 4.0604522533995349e+00 5.5846461840752060e+00 1.5628983403994812e-01 0 0 1
585 1 7.0062105262993235e+00 8.6924342037756350e+00 4.5291254392264158e+00 0 0 0
1795 1 4.3707446938017060e+00 7.5935161953726462e+00 4.3015641113950007e+00 0 0 0
1044 1 8.3478500498049559e+00 9.2263289283045911e+00 3.8084311428232729e+00 0 0 0
3867 2 6.6435575383416658e+00 5.4190083746623525e+00 4.5943429069346120e+00 0 0 0
1834 1 7.8027733746201271e+00 7.3184565192197404e+00 1.8164170918000302e+00 0 0 1
1650 1 7.3399911877235224e+00 6.2176028620045534e+00 3.0371104230246315e+00 0 0 0
618 1 6.0757783507884717e+00 6.7299875953479162e+00 1.9513756644076345e+00 0 0 1
1536 1 6.9121288707661410e+00 6.6282247621316737e+00 1.3698034163926782e+00 0 0 0
1710 1 4.7670012018469574e+00 8.6846769373257064e+00 1.8461342010627373e+00 0 0 0
1158 1 4.2533089048384429e+00 6.9261280338470916e+00 3.5064626713695239e+00 0 0 1
959 1 7.7908129167333264e+00 7.2524384459895694e+00 3.0576416104719302e+00 0 0 0
77 1 6.1208080688182616e+00 7.4264229897474880e+00 1.1936005232069711e+00 0 0 0
3886 2 6.9752132671248717e+00 7.5776065365952601e+00 1.6134154850376050e+00 0 0 1
1463 1 6.8212275905150417e+00 6.9601883075995739e+00 3.6257771264747327e+00 0 0 0
1745 1 8.2108332765284349e+00 8.2839847361167518e+00 3.3283826459992216e+00 0 0 0
1159 1 6.6662735750373150e+00 6.9801807311225366e+00 3.5170446306351527e-01 0 0 1