LAMMPS data file via write_data, version 12 Dec 2018, timestep = 59400

4320 atoms
2 atom types

0.0000000000000000e+00 1.9309999999999999e+01 xlo xhi
0.0000000000000000e+00 1.9309999999999999e+01 ylo yhi
0.0000000000000000e+00 9.6549999999999994e+00 zlo zhi
1.7379000000000033e-01 0.0000000000000000e+00 0.0000000000000000e+00 xy xz yz

Masses

1 1
2 1

Atoms # atomic

3128 1 6.5275863867292960e-01 9.1096134006716190e-01 3.7537659338954282e-01 1 0 1
712 1 1.1363606840607090e+00 1.1139365567957542e+00 1.1870944739915086e+00 0 0 0
3695 2 2.8897552389528021e+00 5.9052662412773482e-01 4.5015847629943657e+00 0 1 -1
216 1 1.7268245853462914e+00 6.1075572647000842e-01 4.7463163618235310e-01 0 0 1
573 1 2.6368444065644407e+00 8.2444612321167032e-01 1.0610982425598798e+00 0 0 0
64 1 7.5990615311239385e-01 4.3778149997044480e+00 4.6609792102111456e+00 0 0 0
380 1 1.1854490039194361e+00 4.2041277491410667e-01 4.6316430771197377e+00 0 1 0
3933 2 3.4508279795504233e+00 5.7740225701116576e-01 1.1005591061518918e+00 0 1 0
1461 1 4.2997666313618135e+00 6.4241324472084094e-01 9.5434400265546160e-01 0 1 1
1017 1 3.4275238320743528e+00 9.0020631702263731e-01 2.5924533002461048e-01 0 1 1
609 1 3.6805873768079205e+00 1.4009484414613909e+00 1.3197651315205043e+00 0 0 0
1178 1 3.8887258314610382e+00 5.3502606773539008e-01 1.9455695758840488e+00 0 0 1
3072 1 8.7659105078113120e-01 1.9301658640947457e+00 5.3021886905906612e-01 1 0 0
2596 1 4.6243180754681240e-01 2.7710430646321154e+00 1.0994485956514173e+00 1 0 0
527 1 1.4439695161171424e+00 2.3183458145622655e+00 1.3942032676160934e+00 0 1 1
3590 2 2.2132870672930336e+00 4.0735255734421649e+00 3.6561602484309712e+00 0 0 0
2754 1 8.4001250522919110e-02 4.6705337307648243e-01 3.2595941700540743e+00 1 1 0
3111 1 1.8992942998914957e+00 1.6798260023720764e+00 6.0227273887203181e-01 1 0 1
4115 2 1.5218183089826141e+00 2.5098943274499734e+00 3.6099091140487316e-01 1 0 1
1031 1 2.9240374751738250e+00 1.7885374514629788e+00 6.5814770960123836e-01 0 0 0
252 1 2.3725221022487766e+00 2.6597015184510231e+00 8.7724513293267692e-01 0 0 1
3162 1 2.2150432503350688e+00 1.7146851940377663e+00 1.6378959888787046e+00 1 0 1
611 1 4.0610145816064103e+00 1.7486180517192340e+00 2.6389755294829964e-01 0 0 0
1033 1 3.6200241105242652e+00 2.4720328168234595e+00 1.0454899015503791e+00 0 0 0
546 1 4.3507486846052457e+00 2.8364547205003912e+00 2.1850289529086248e-01 0 0 0
273 1 4.5696291699569915e+00 2.1854906137437000e+00 1.0349114638547050e+00 0 0 1
1032 1 4.6167248624667456e+00 4.5872700934811981e+00 2.3823329233405972e+00 0 0 0
3625 2 5.7637962709216095e-01 3.5181530839761659e+00 7.5065823054799474e-01 0 0 1
2992 1 3.5584639523841494e-01 4.5412396896315173e+00 7.6576022838197022e-01 1 0 0
2495 1 1.3719999129375433e+00 4.4284301392176229e+00 1.1244208219424727e+00 1 0 0
2636 1 1.1192267439257255e+00 4.0761932772819334e+00 1.4702343066452106e-01 1 0 1
2696 1 1.4129307702513121e+00 3.3013158457474066e+00 9.3005517029674400e-01 1 0 1
831 1 4.9106282151423680e-02 2.2308254746426190e-01 4.3646496331765894e+00 0 1 0
3143 1 2.3220140570432051e+00 3.8852437486377984e+00 7.5007616972325919e-01 1 0 1
3158 1 4.3971010540335467e+00 3.2198969958319594e+00 1.2065830270320519e+00 1 0 1
1141 1 3.2637368239401705e+00 4.3136572063311114e+00 1.2883719642823976e+00 0 0 0
3491 2 3.8287869604270885e+00 4.4235982148355610e+00 6.5043572959240048e-01 0 0 0
97 1 3.3986220096636641e+00 3.5763483397966134e+00 5.9286551881296379e-01 0 0 0
742 1 4.4086115410434905e+00 3.9116667552457645e+00 3.3161959767753996e-01 0 0 1
768 1 4.4763782120253852e+00 4.3908333212909154e+00 1.3418294709399434e+00 0 0 1
976 1 1.9723874857613669e-01 1.0715923054702323e+00 2.3645781914364776e+00 0 1 1
3411 1 8.2634238286525530e-01 3.6809890483409330e-01 1.9676603646780513e+00 1 1 1
436 1 1.0736858296481497e+00 6.7238792396353997e-01 2.8847185547961338e+00 0 1 0
675 1 1.4630850854195960e+00 1.3436595281834651e+00 2.2268825779910832e+00 0 0 1
360 1 1.9017728385517856e+00 4.5490730848505412e-01 1.7836699917348384e+00 0 1 0
944 1 2.2675845427757588e+00 8.3476392172692904e-01 2.7427051165876386e+00 0 1 1
1180 1 3.0360388314469180e+00 1.0500545417149934e+00 2.0251135378220053e+00 0 0 1
3920 2 3.1996722017165102e+00 1.1836484685446733e+00 2.9080356288425082e+00 0 1 -1
763 1 3.8631854059411896e+00 4.1732809121903358e+00 4.1375823876859865e+00 0 0 1
149 1 3.0527776077697650e+00 4.6088018505277111e+00 2.5626131686556736e-01 0 0 1
1245 1 3.9135240283166413e+00 1.4310884091949634e+00 2.4533118219341632e+00 0 0 0
12 1 3.9469984878781581e+00 5.6069354484737632e-01 3.0052894184022105e+00 0 0 0
102 1 2.9550858975314447e+00 3.4571446837961450e+00 3.4391004047107763e+00 0 0 0
3020 1 6.1832963428986343e-01 1.8363066805301826e+00 1.7815038487153412e+00 1 0 0
384 1 3.2259786745657215e-01 2.9601545554048849e+00 2.3545685170465247e+00 0 1 0
465 1 7.6140447230770369e-01 1.9343728579404924e+00 2.7850726521887799e+00 0 1 1
3709 2 1.1008917045774476e+00 3.0923432406919256e+00 1.6995688873591930e+00 0 0 0
254 1 1.4793233080064943e+00 2.7192747166354079e+00 2.4280688678464988e+00 0 0 1
4188 2 1.3955325345001671e-01 2.5520419225490651e+00 3.1443993925146536e+00 1 1 0
567 1 2.3426882515565950e+00 1.8830974416917146e+00 2.6962123517918637e+00 0 0 0
4064 2 2.1840892558169704e+00 2.7380233618204919e+00 1.7491550925157213e+00 0 0 1
427 1 2.4307731094931850e+00 3.0311112088707488e+00 2.5724247613438789e+00 0 1 0
3121 1 3.0117059016707763e+00 2.3268514004016536e+00 2.0028777509776501e+00 1 0 1
1778 1 4.0932321020633102e+00 2.3075772861565147e+00 2.0135368787466832e+00 0 1 0
607 1 3.3246157767789266e+00 2.1681469238068396e+00 2.9758149126871531e+00 0 0 0
3703 2 3.6581221993230471e+00 3.0580025343032800e+00 1.7780287861235515e+00 0 0 0
646 1 3.5873322686236127e+00 3.0630287185918421e+00 2.6521658795298197e+00 0 0 0
367 1 4.3595998079843774e+00 2.3540597747911369e+00 3.1589566084383103e+00 0 1 0
1992 1 4.6039232477910623e+00 3.0907750107078087e+00 2.3589880564053138e+00 0 0 0
3868 2 4.6795473730058026e+00 3.8095497127651452e+00 2.8244241212000119e+00 0 0 1
1300 1 6.7230831381124923e-01 3.8203143325987807e+00 1.5698430983184812e+00 0 1 0
2981 1 5.8564080255157136e-01 4.6852417789234062e+00 2.6671374182487684e+00 1 0 0
499 1 1.1185811792874421e+00 3.6998251313483714e+00 2.5764511478086964e+00 0 0 0
3476 2 1.3106011443467338e+00 4.4299504495880644e+00 2.0371592955473568e+00 0 0 0
47 1 2.8276780767225294e+00 3.3408939072712744e+00 1.5483082838480142e+00 0 0 0
114 1 2.1947448440473143e+00 4.6511196859899426e+00 1.7237302190633403e+00 0 0 0
500 1 1.8058383682450907e+00 3.6733641434351521e+00 1.8252058746076263e+00 0 1 1
614 1 1.8899625786441261e+00 4.3499733914873824e+00 2.7277812726659549e+00 0 0 0
58 1 2.9216600453729704e+00 3.9579294229197397e+00 2.4514299819959282e+00 0 0 0
1426 1 4.8015891916228641e+00 1.4047696423759000e+00 3.1141084013930760e+00 0 1 0
81 1 1.0571109176628815e+00 1.5392517054515249e+00 4.7718604337683601e+00 0 0 0
261 1 3.8291357714523606e+00 4.0845780687679643e+00 3.1002621264970647e+00 0 0 0
275 1 3.9043618829313500e+00 3.9115214438892143e+00 2.0463353208674113e+00 0 0 1
3089 1 8.2716726435357313e-01 2.9983560398051892e+00 1.0040179675300964e-01 1 0 0
4290 2 2.1401486659103872e+00 2.5650705693773257e-02 1.0352782934810496e+00 1 1 1
2536 1 7.0633791693355957e-02 3.8171404844284260e+00 9.9026115385218147e-02 1 0 0
873 1 8.3252366513160891e-01 1.0645757930252537e+00 3.8455250682076194e+00 0 1 0
906 1 4.6045713251247147e+00 2.1558357786751008e-02 3.8618965544407255e+00 0 1 0
881 1 2.9686161078997388e+00 5.8260618392215680e-01 3.4859002291684145e+00 0 1 0
664 1 4.0188387620666894e+00 3.0307742733701866e+00 4.7884874097535599e+00 0 0 0
861 1 1.6529986314219725e+00 1.3614436966770347e+00 3.3890199407180277e+00 0 1 0
657 1 2.0836347657636449e+00 1.1255228172588267e+00 4.4325159395658842e+00 0 0 1
506 1 1.9069260577727261e+00 2.9439514664854444e-01 3.7163139015796172e+00 0 1 0
116 1 2.7049418359302226e+00 1.5652834373327442e+00 3.5768664198353872e+00 0 0 0
4198 2 3.0481540003149310e+00 4.8023992589717821e+00 2.0174618367847539e+00 1 0 0
4222 2 3.3151594077208100e+00 3.4386716090510814e+00 4.4342497639767586e+00 1 0 -1
825 1 3.1217223724756016e+00 1.3971544986512732e+00 4.4967253443901551e+00 0 1 0
977 1 3.7632799369865206e+00 5.4473735428643877e-01 4.2976266424420100e+00 0 1 0
892 1 3.8383158697121158e+00 1.4183120296968108e+00 3.5506580459838455e+00 0 1 0
1295 1 4.7868906642262621e+00 4.3192440063028679e+00 3.4620994814328645e+00 0 1 0
1576 1 9.2152818193740282e-01 2.9146189573547434e+00 3.2805691763541240e+00 0 0 0
762 1 3.7513148394879253e-01 1.9680737421180567e+00 3.8723797811016860e+00 0 0 0
631 1 1.4304400436768667e+00 2.2155006533502122e+00 4.0610891867442644e+00 0 0 0
3465 2 1.5351800126462554e+00 2.2617386268500344e+00 3.1838352833148109e+00 0 0 0
240 1 2.2030536425476535e+00 3.2472105005869771e+00 4.3044843322270552e+00 0 0 0
3055 1 2.2899647341718556e+00 2.5161295688692742e+00 3.5726311188025854e+00 1 0 0
336 1 2.4383814430726236e+00 2.1644986307612180e+00 4.7071101691105026e+00 0 1 0
2048 1 4.0737415047468097e+00 3.1797046795269890e+00 3.7100653752883139e+00 0 0 0
778 1 3.2158882355696030e+00 2.6434154254849305e+00 4.1050701427924903e+00 0 0 1
1152 1 4.1023997980595865e+00 2.1149367815840550e+00 4.3187382752004160e+00 0 0 1
874 1 2.6873814838442617e-01 3.8095305550612757e+00 3.1780542089660471e+00 0 1 0
71 1 1.1865788753153199e+00 3.3021128845388232e+00 4.3193654388165994e+00 0 0 0
594 1 4.7983684745452191e+00 1.0969981162794498e+00 4.1104605704887707e+00 0 0 0
1815 1 4.6730372153379571e+00 1.2694668343717976e+00 1.6452682285265685e+00 0 1 0
2555 1 1.2012487238701144e+00 4.2398278013015522e+00 3.5865831451955410e+00 1 0 0
3507 2 5.3799059308338903e-01 3.8670836276146145e+00 4.0227847337552003e+00 0 0 1
17 1 1.7489824785556658e+00 4.1896467461107809e+00 4.4480965155976238e+00 0 0 0
3065 1 2.7898160511349941e+00 4.1603410102998870e+00 4.3710078510661035e+00 1 0 0
26 1 3.0035548665671969e+00 4.6290199884273235e+00 3.3355599063127230e+00 0 0 0
3179 1 1.8026810335965384e+00 3.4123874312585736e+00 3.2921426053070415e+00 1 0 0
599 1 3.9920183056592262e-01 4.7846960339902997e+00 3.8214940804215938e+00 0 0 0
4116 2 4.5829002003936559e+00 8.8785284721181612e-01 2.4048584371787278e+00 1 0 0
3300 1 2.6125981893988609e-01 3.2923725821187737e-02 1.0761364856823432e+00 1 1 0
4204 2 5.4572430378408213e-02 1.4815292443789612e+00 3.2498064320835409e+00 1 0 0
3678 2 2.6169703395780708e+00 1.5600301023977037e-01 2.1845466023482882e+00 0 1 0
44 1 3.2880393793458538e+00 2.6741733135347068e+00 7.2170751096409497e-02 0 0 1
3172 1 2.6134101994254122e-01 3.4508990856004815e+00 4.7972267693419424e+00 1 0 0
789 1 4.8603927306245087e-01 2.4645411377595434e+00 4.7875797205500730e+00 0 0 0
3673 2 4.1709660127707275e+00 4.6385237873284341e-01 5.2779884294551813e-02 0 1 0
3340 1 6.4746673737264615e-01 5.5211201804748400e-01 5.5043633769230009e+00 1 1 0
263 1 1.1629725479413111e+00 9.3921230499962172e-01 6.4523990680065593e+00 0 0 0
124 1 3.6381574597473172e+00 3.5247421439334028e+00 9.3442079958428241e+00 0 0 0
4088 2 2.7528217427278459e+00 3.7163574885611932e+00 9.5769424434465407e+00 1 0 0
280 1 2.6582646039008034e-01 3.6394624065502952e+00 7.8759112731380680e+00 0 0 0
879 1 1.6076321943106264e+00 8.8332459322983292e-01 5.4965940626930205e+00 0 1 0
1040 1 2.7328709294841085e+00 1.3362630958434671e+00 5.3922642628809436e+00 0 0 0
3135 1 2.5222149841827868e+00 3.3383341591921212e-01 5.8449692282342589e+00 1 0 0
3474 2 1.7829994331253656e+00 4.1544092390619330e-01 6.3138285178844802e+00 0 0 0
3498 2 3.1006300953365575e+00 9.0250397544208816e-01 6.1822877609865818e+00 0 0 0
582 1 2.2695612822111904e+00 1.2474034507372036e+00 6.3475486463821973e+00 0 0 0
1137 1 4.8453108585432165e+00 2.1403502666739200e+00 9.2757710792293100e+00 0 0 0
863 1 3.4855762199130105e+00 5.8706121293670566e-01 5.4080177710377129e+00 0 1 0
682 1 3.9392629388003160e+00 9.2724171824885138e-01 6.3315715496602092e+00 0 0 0
1459 1 4.1794676507470330e+00 1.3050537947643466e+00 4.9469307632704966e+00 0 1 0
4229 2 3.8758867125583785e+00 1.5514005271151994e+00 5.7031061258452178e+00 1 1 0
3888 2 4.4937019277424808e+00 4.5828951283950659e+00 8.1557455020162912e+00 0 0 0
3127 1 3.7091229531542452e-01 1.7438846072040592e+00 5.7840665908665967e+00 1 0 0
3570 2 7.6349843830212227e-01 2.4805322856876848e+00 5.6291548174048769e+00 0 1 0
730 1 1.4718210793970254e+00 1.9496865692684842e+00 6.0679788599479760e+00 0 0 0
572 1 2.5170786734089399e+00 4.8207491587377120e+00 8.1141948017572538e+00 0 0 -1
1016 1 1.4947653273524959e+00 2.5015527448043300e+00 5.1671125412298879e+00 0 1 1
1008 1 1.6636384910154718e+00 2.9337615890051834e+00 6.1164539874225712e+00 0 1 0
3557 2 1.8696911928719955e+00 1.7454413906421700e+00 5.1600698995882510e+00 0 1 0
1053 1 2.4254967757704242e+00 2.2606314091587087e+00 5.7014026009793843e+00 0 0 0
602 1 3.0067194692158954e+00 3.0700013848523811e+00 5.1322997285468608e+00 0 0 0
253 1 2.7097439403404517e+00 3.2592823108728024e+00 6.1938140897420002e+00 0 0 0
3469 2 2.1583917583648615e+00 3.1680658563075852e+00 5.3930601110778866e+00 0 0 0
740 1 3.2017981430168181e+00 1.7954109441579034e+00 6.1900216904897079e+00 0 0 0
3675 2 3.3242820647392781e+00 2.6443475192090435e+00 5.9224560751708717e+00 0 1 0
1206 1 4.1533451873822118e+00 2.3611517736141141e+00 6.0416268518590224e+00 0 0 1
1573 1 3.4764102825073544e+00 2.1175800162630658e+00 5.2004642780447217e+00 0 0 0
3687 2 4.2710183021417170e-01 2.2650683008866888e+00 9.5467771391718799e+00 0 0 0
3481 2 3.3585605892948136e+00 3.4179725317022793e+00 8.4231283634643059e+00 0 0 0
3186 1 2.0651275912564389e+00 2.5984631802145930e-01 9.1000445807595707e+00 1 0 0
623 1 5.2295436519673077e-01 3.3169848630994627e+00 5.8820419677267175e+00 0 0 0
3457 2 4.1674808954103654e-01 4.1123116849394243e+00 5.4212884076427530e+00 0 0 -1
138 1 1.3397210615411537e+00 3.6789697267153478e+00 5.2802301753338883e+00 0 0 0
2973 1 7.3403270711282631e-01 4.3284211387265694e+00 6.2679140474406454e+00 1 0 0
126 1 1.5491387308686828e+00 4.6954799255029798e+00 5.4407532975529875e+00 0 0 0
3036 1 1.4053520871802025e+00 2.8330137098264027e-02 7.1318641391794850e+00 1 0 0
590 1 1.7154733697916837e+00 3.9155686646651011e+00 6.3249872884582770e+00 0 0 0
270 1 2.3634877114075907e+00 4.0633146436773169e+00 5.2902560741903457e+00 0 0 0
3724 2 4.6092012273871141e+00 1.2901437910131177e+00 6.8468606438960409e+00 0 0 0
1049 1 3.8512841158574767e+00 3.3348402458894171e+00 5.9317489762267144e+00 0 0 0
3620 2 3.2319429474826498e+00 4.0315152925006128e+00 5.9637693918585795e+00 0 0 0
601 1 3.5457554360947041e+00 3.9849892872101402e+00 5.1354215867301773e+00 0 0 0
1077 1 4.7171439365351722e+00 1.4819919867887605e+00 5.9181364042828442e+00 0 0 0
647 1 4.5555557782514029e+00 3.9385712159143278e+00 5.3068818530199291e+00 0 0 0
1105 1 4.7649225074227530e+00 3.9754764813011940e+00 6.4296346280774674e+00 0 0 0
251 1 2.8508877954100722e+00 2.4073991177751396e-02 8.3888981762344024e+00 0 0 0
816 1 8.8334457003763633e-01 7.5811875733661849e-01 7.6227370210478114e+00 0 1 -1
2990 1 2.0190626707349954e-01 1.2862447753755200e+00 7.0330586576491081e+00 1 0 0
60 1 3.2284952573305437e-01 1.0675740697995360e-01 6.9611358348365178e+00 0 0 0
4009 2 2.1731659977738221e-01 2.1700312278654033e+00 7.2910995976669879e+00 1 0 0
4232 2 1.7015196229123450e+00 8.8928072099840627e-01 7.2554519144776179e+00 1 0 1
464 1 2.4060326138834860e+00 4.1529562396152409e-01 6.9600583087722976e+00 0 1 0
442 1 1.9560080575152705e+00 3.7144731507191708e-01 7.9539861741005078e+00 0 1 0
49 1 2.3386451220229501e+00 1.4629285708602486e+00 7.4506762887157612e+00 0 0 0
3546 2 2.8648304784079022e+00 6.9815890721128748e-01 7.8366392345238163e+00 0 1 0
3427 1 3.1938331666805677e+00 1.0219973340417572e+00 7.0499422617872822e+00 1 1 0
1025 1 4.4225412891016500e+00 2.4164423331720006e-01 7.0072111259317236e+00 0 0 0
106 1 3.9648169966669569e+00 7.7594422734563107e-01 7.8336417698281338e+00 0 0 -1
3778 2 8.3350916232953565e-01 3.9573264498312673e-02 6.2492736330634138e+00 0 1 -1
660 1 3.9677989354914849e+00 4.5970980615628498e+00 9.3208182633987864e+00 0 0 0
960 1 3.3515344207816828e+00 5.9379391515291848e-02 6.4607263910107164e+00 0 1 0
28 1 1.2422211043190592e+00 1.7236400546999826e+00 7.1354720168528578e+00 0 0 0
241 1 6.6938022443461553e-01 2.4334353840968039e+00 6.5047814823688848e+00 0 0 1
282 1 8.8214766103289799e-01 2.6652773250432116e+00 7.6670696591638174e+00 0 0 0
3482 2 1.4475451996250430e+00 2.5419510784274233e+00 6.8618293045385235e+00 0 0 -1
466 1 4.9001305876793966e-01 1.6783906525751480e+00 7.9805378240338598e+00 0 1 0
3466 2 2.2147851177589102e+00 4.6829239916702692e+00 6.0654976816277735e+00 0 0 0
269 1 1.8279126382270872e+00 2.3166581580979746e+00 7.7580300994870663e+00 0 0 0
2892 1 2.3018505234585347e+00 2.3394826773202313e+00 6.7671380591985555e+00 1 1 0
419 1 2.7936095422441616e+00 2.5869690745036102e+00 7.6884615045731577e+00 0 1 0
4206 2 3.0279790370389859e+00 1.9277199460918926e+00 7.0674262491969699e+00 1 0 0
629 1 2.0947055727263919e+00 3.2641063090303915e+00 7.1825803597978037e+00 0 0 0
725 1 3.9438761695514577e+00 1.7782304705512459e+00 7.0320257108414355e+00 0 0 0
845 1 3.3756836127422569e+00 2.6754265758543436e+00 6.7941072461705838e+00 0 1 0
653 1 4.1916003761937422e+00 2.4623717672390151e+00 7.7462917138465714e+00 0 0 0
580 1 4.3996333215124244e+00 3.0909880178500426e+00 6.8422295129686193e+00 0 0 0
1345 1 3.3463414191216621e+00 1.7440057765175123e+00 7.8304172925470326e+00 0 1 -1
969 1 1.0152866720298390e+00 3.4505399292291088e+00 6.8767282751762888e+00 0 1 0
1064 1 7.2325437748866628e-01 4.4020843735432846e+00 7.2558507848068556e+00 0 0 0
276 1 1.3847979849657599e+00 3.6395385837874663e+00 7.8381438524610454e+00 0 0 0
3865 2 4.4289949010159511e+00 7.4663169555470110e-01 5.5342418585747133e+00 0 0 1
223 1 2.6927593896776214e+00 4.2016939020840143e+00 6.7079475604873533e+00 0 0 0
766 1 1.9267921151799610e+00 4.3820765138456608e+00 7.2849808790962713e+00 0 0 0
287 1 2.6959039875638111e+00 3.7513628138371216e+00 7.8042116276983204e+00 0 1 -1
3835 2 2.9699072657236996e+00 3.4562846124022957e+00 7.0486755110875876e+00 0 0 0
3528 2 4.6435158141426358e+00 1.0261602621568493e+00 8.4067258899892963e+00 0 1 -1
3611 2 4.4040088459972555e+00 3.2737131754186453e+00 7.9500771811386324e+00 0 0 0
758 1 3.9857616005799974e+00 4.5962931812574439e+00 5.9165367405702849e+00 0 0 0
610 1 3.6439677229866589e+00 3.3371394425052925e+00 7.6036935102107064e+00 0 0 0
424 1 3.7391584843584051e+00 3.9663254241254005e+00 6.7393370667468888e+00 0 1 0
248 1 3.4413034126738813e+00 4.4518766832489103e+00 7.7131502275442321e+00 0 0 0
204 1 4.5231820380072110e+00 4.0554916093723739e+00 7.4530152442357185e+00 0 0 0
981 1 4.5729716082596070e+00 2.0879078967863601e-01 4.8549895292943672e+00 0 1 0
3518 2 7.6159543113111627e-01 9.9837925120614401e-01 8.4937080384106221e+00 0 0 0
291 1 2.6676975790530832e-01 4.8491390098370607e-01 9.1186686891436821e+00 0 1 0
3174 1 1.0917548837733861e+00 2.2847244326791591e-01 8.5301082850092644e+00 1 0 0
1370 1 1.3289762071831199e+00 9.6854207217489918e-01 9.2269024800346742e+00 0 1 0
3194 1 3.7018515256470652e-01 1.5517077314564602e+00 9.0424243292676696e+00 1 0 0
246 1 1.5353732747259539e+00 1.3606758126202199e+00 8.2026192981377317e+00 0 0 0
3628 2 4.7331638281168038e+00 3.2357220542351941e+00 5.9405508721707436e+00 0 0 0
221 1 2.5956207438859318e+00 1.0663977333977266e+00 8.5150325472326980e+00 0 0 0
3549 2 2.8949849005289177e+00 4.4976377833761100e-01 9.1777341239046901e+00 0 1 0
2531 1 5.3900254420797850e-02 4.8032354516326565e+00 9.4589802639774216e+00 1 0 -1
681 1 1.9837508543192168e+00 3.8656845022755695e+00 8.5742136630948877e+00 0 0 0
1438 1 4.4693259829394201e+00 2.6710301165489631e-01 8.7390645561858982e+00 0 1 0
271 1 3.6467353126504221e+00 8.7900988883736864e-01 8.8806885269493527e+00 0 0 0
3932 2 3.7170093544744112e+00 1.1186698921323372e-01 8.4038480369327910e+00 0 1 0
227 1 1.3383031141396944e+00 2.0513075461258867e+00 9.2155587873390541e+00 0 0 0
3136 1 5.3843663178262891e-01 2.5582046234606839e+00 8.7508577014040352e+00 1 0 0
3573 2 1.1989637998308091e+00 2.1871406991170468e+00 8.3616159422210039e+00 0 1 -1
3921 2 1.9813663741436911e+00 1.4760684221118665e+00 8.9801879881946949e+00 0 1 -1
288 1 2.2581425283877192e+00 1.7771962508506761e-01 4.8877887119894146e+00 0 1 0
201 1 2.6335220747483841e+00 3.1231853453551177e+00 8.8364273049921849e+00 0 0 0
209 1 1.5537820531172091e+00 2.8473781616730922e+00 8.6630220314401196e+00 0 0 0
3589 2 2.1620075027476195e+00 3.1429883459894392e+00 8.0818589246279373e+00 0 0 -1
353 1 2.4534245280717517e+00 2.0333492750832480e+00 8.5198511044466585e+00 0 1 0
843 1 3.2649475400301311e+00 1.7821848129910751e+00 9.1660019098191672e+00 0 1 0
605 1 4.2115205456374980e+00 1.7993620427432799e+00 8.5633133977211315e+00 0 0 0
1177 1 4.4009715053407099e+00 3.0233009378797160e+00 8.7913742430347153e+00 0 0 0
1073 1 3.5078087385399863e+00 2.6024962493672734e+00 8.4994640211794845e+00 0 0 0
3815 2 3.9575166430916591e+00 2.3170290701095646e+00 9.2874418103169489e+00 0 0 0
247 1 3.9853302961016426e+00 3.9504349060784736e+00 8.4703399419150269e+00 0 0 0
2552 1 9.4184262778666539e-01 3.6405695720721489e+00 8.8936832109934549e+00 1 0 -1
3148 1 1.2870661969924919e+00 4.6401309560346791e+00 8.0890782577229068e+00 1 0 -1
3079 1 3.6637390667074243e-01 4.4869214367091992e+00 8.5076169808049755e+00 1 0 -1
3561 2 4.4802049632411656e+00 3.8143143995533100e+00 9.1252024674541552e+00 0 0 0
162 1 2.9886871867507749e+00 4.1344035284061595e+00 8.8062339067456232e+00 0 0 0
3883 2 4.4049390550073895e+00 2.2902766980337304e+00 5.2109908549020512e+00 0 0 1
1052 1 2.0468737252125329e+00 4.4207655332930216e+00 9.4555470470546457e+00 0 0 -1
885 1 4.7242908882829155e+00 1.5268625000196401e+00 7.7141630236979495e+00 0 1 0
1149 1 4.6435777892393899e+00 1.1090798877112822e+00 9.3008574806750968e+00 0 0 0
3530 2 4.3447446509350653e+00 4.6481498782736983e+00 6.7451809738980684e+00 0 1 0
142 1 2.3120150052968649e+00 2.2545205585311376e+00 9.5292396175130207e+00 0 0 0
1166 1 3.0276775356269705e+00 4.8090556681278658e+00 5.7594738322990127e+00 0 0 0
471 1 2.4743776290911756e+00 1.1251446059868362e+00 9.6054745181594665e+00 0 1 0
37 1 1.9606959023551953e+00 3.2865386715749212e+00 9.6183785692977004e+00 0 0 0
118 1 1.1228037985436099e+00 5.2656683962804243e+00 4.3570461400725990e-01 0 0 0
3702 2 1.5209959305562646e+00 5.2772054712602703e+00 1.3656229607302224e+00 0 0 1
732 1 9.4795594497855862e-01 6.0601650028928260e+00 1.4108828639149169e+00 0 0 1
4051 2 9.8927646749499676e-01 6.4876820484449302e+00 5.4379725072308127e-01 1 0 0
4081 2 3.4806312175832260e-01 7.5656194574311622e+00 4.3971374709740392e+00 1 0 0
790 1 1.7642915750401167e+00 6.0772855224356448e+00 7.6078067922540138e-01 0 0 1
992 1 2.8193949915842875e+00 5.9446773078267849e+00 8.0544629668486634e-01 0 1 1
3907 2 2.9925899523166177e+00 5.1960807580382573e+00 9.9829028816931442e-01 1 1 0
1026 1 4.0665582345950062e+00 8.3250237376877116e+00 4.5727436811674549e+00 0 0 0
205 1 2.2194456674339418e+00 5.0448312013399432e+00 7.7609977071975078e-01 0 0 1
2977 1 3.8038928573527557e+00 5.2782132164863960e+00 8.9584862511851127e-01 1 0 0
92 1 4.5336179842639490e+00 6.0708608215039961e+00 4.5820525403263540e-01 0 0 0
787 1 4.0314642993186540e+00 6.1873624151384767e+00 1.2798787435378214e+00 0 0 1
1253 1 2.1295806032504800e+00 4.9953597850201392e+00 3.6174213184980837e+00 0 0 0
1104 1 4.5733882144110556e+00 8.7302461651215868e+00 2.2027764315014808e+00 0 0 0
188 1 6.9943820176989058e-01 7.7943625789626658e+00 3.6259675026679117e-01 0 0 1
679 1 2.9299148147125081e-01 6.9335307730135218e+00 9.7530312540521791e-01 0 0 1
780 1 1.2870444574728563e+00 7.1640501187015717e+00 9.1936240304257599e-01 0 0 1
3029 1 4.7659096020605796e-01 7.9235707186473663e+00 1.4100206650729896e+00 1 0 0
4300 2 1.6433897160019153e+00 9.5377883336723190e+00 1.4633030892314558e-01 1 0 1
128 1 2.4319407820449923e+00 7.0126766218834984e+00 7.5259496742654741e-01 0 0 0
32 1 3.1072388300526703e+00 7.7369826413853371e+00 2.1139062589444446e-01 0 0 0
3026 1 1.8854555964760285e+00 7.7267176723466902e+00 2.1005376378661988e-01 1 0 0
616 1 2.8452962181500454e+00 6.7876681282312310e+00 4.7600505703936964e+00 0 0 0
3071 1 1.7353424468396821e+00 8.1348066219900588e+00 4.2459319373558593e+00 1 0 0
785 1 3.2818266278315842e+00 7.4415894688919408e+00 1.2393538913889461e+00 0 0 1
555 1 3.3737176204002921e+00 6.7412066133967183e+00 3.4104967450059298e-01 0 0 0
927 1 4.2078845413133044e+00 7.2857367375910940e+00 8.3694804607886564e-01 0 1 1
39 1 8.9698260074447744e-01 9.1656964916083474e+00 1.1200992640261325e+00 0 0 0
701 1 1.3894213441609808e+00 8.6849022278342112e+00 1.8586388058217168e-01 0 0 1
211 1 1.4731021709247205e+00 8.2928573247952340e+00 1.1475355225202559e+00 0 0 1
4053 2 4.0872074987626519e+00 5.0821783587711433e+00 1.7604739669456710e+00 0 0 1
3559 2 3.3233628802946030e-01 9.3869498399476665e+00 2.7413043315798613e+00 0 0 0
152 1 2.5785943845275163e+00 8.1965273542870687e+00 1.0208049132910344e+00 0 0 1
13 1 2.0511210989057593e+00 9.2154552403816883e+00 8.8543168073100276e-01 0 0 0
1143 1 3.0711935627262967e+00 9.2272455326408647e+00 7.2043157164410876e-01 0 0 1
170 1 2.4589410908556379e+00 8.6484015213133940e+00 3.6989363528818053e+00 0 0 0
3693 2 1.0837570942287131e+00 8.5551315832330257e+00 3.6310097499496767e+00 0 0 1
2660 1 2.7037537620442653e-01 5.8469743735405464e+00 5.9600815547036301e-01 1 0 1
654 1 3.9934770791035299e+00 9.3609816376821726e+00 4.2926282921104750e+00 0 0 0
695 1 3.7160850588522631e+00 8.4575794819225329e+00 8.6238844264270653e-01 0 0 1
796 1 4.1700537092778074e+00 9.4158680758158049e+00 7.0427111918873142e-01 0 0 0
3646 2 4.5467589397746728e+00 8.8537804765944781e+00 1.2911979924053993e+00 0 0 1
1318 1 3.6696259559185109e+00 5.0442169325148232e+00 2.5821245403303825e+00 0 1 0
4174 2 3.2572451089532297e+00 8.5890802183102757e+00 1.2022225284908214e-01 1 0 1
2703 1 5.5863408677912207e-01 5.7435160808264127e+00 2.5150185489514270e+00 1 0 0
3149 1 1.4595657806902549e+00 5.2796428237223552e+00 2.2405080337785495e+00 1 0 1
4201 2 1.2042777009288579e+00 6.2999817987241098e+00 2.2016904942149860e+00 1 0 0
1118 1 3.5338026730027572e+00 8.5962344509772315e+00 3.6857562725784518e+00 0 0 0
3210 1 1.1990212251826564e+00 5.2785832939907342e+00 3.2249201598429811e+00 1 0 1
100 1 2.2462894527665815e+00 5.6626836393460165e+00 1.6626155716530377e+00 0 0 0
361 1 1.8863250564693663e+00 6.1756547036883287e+00 2.6989707635065368e+00 0 0 0
4273 2 2.7047785888101505e+00 6.0469929387788088e+00 2.3647258294310842e+00 1 1 0
3014 1 2.4945588842119988e+00 5.2206722284476728e+00 2.6151467228729408e+00 1 0 0
411 1 3.2653945709473304e+00 5.5778820144151551e+00 1.7635762677599134e+00 0 1 0
3195 1 4.3585057415835200e+00 5.7533961731140399e+00 2.1795417111680710e+00 1 0 0
21 1 3.5750046050028952e+00 6.3277659342504213e+00 2.3756988331968558e+00 0 0 0
3353 1 2.4272548003050374e+00 8.6449402166850859e+00 5.0159435575348806e-02 1 0 1
171 1 8.5969912228239953e-01 7.1070963025134697e+00 1.9745894583082340e+00 0 0 1
4308 2 8.1497089639254006e-01 7.4691943432247401e+00 2.7577072999684278e+00 1 1 1
3167 1 8.8916706131315759e-01 6.6353295508385779e+00 2.9449773070997041e+00 1 0 0
3892 2 2.6537037318050092e+00 5.4481590894004075e+00 1.5160600870441596e-01 1 0 0
3648 2 3.2319404874885711e+00 4.8791527773186747e+00 4.1391853589230889e+00 0 0 0
4142 2 1.5429628118505332e+00 7.5844299895509266e+00 1.7633028314518384e+00 1 0 1
187 1 1.7007638524490984e+00 7.2445351339716417e+00 2.6507520081182525e+00 0 0 1
574 1 2.9100934998725192e+00 6.5466470158926287e+00 1.5973415651155456e+00 0 0 0
113 1 1.8808096776756327e+00 6.6890807643980263e+00 1.6554039530162277e+00 0 0 0
776 1 2.5397589011161528e+00 7.6552613301554810e+00 1.9048327672384773e+00 0 0 0
178 1 2.6949850277791723e+00 6.8736476991567326e+00 2.7558305067082540e+00 0 0 0
109 1 4.2594397301480411e+00 7.9368038479615013e+00 1.6312780867526089e+00 0 0 0
2994 1 3.4926419900254815e+00 7.3821767248299350e+00 2.2944885893455291e+00 1 0 0
693 1 4.3751967845630411e+00 6.9163315716686444e+00 1.9147114779345278e+00 0 0 1
759 1 4.2981753256914743e+00 7.0761781549206564e+00 3.0563913600025194e+00 0 0 1
3086 1 1.0908439961956833e+00 8.1520690577346286e+00 2.2052080968976160e+00 1 0 0
3462 2 1.2592955612515546e+00 8.8974854982579696e+00 1.8302711637920779e+00 0 0 0
2610 1 3.2170202680910409e-01 8.8964440420773450e+00 1.9529357110484369e+00 1 0 1
2998 1 4.0446448803500540e-01 8.5262704865171823e+00 3.0089332262535669e+00 1 0 0
108 1 1.2708659628652315e+00 9.1747923439401013e+00 2.6230037132205108e+00 0 0 0
3631 2 4.2786920723895339e+00 9.5494780699144961e+00 2.5053608521017203e+00 0 0 1
2544 1 1.7457559189213874e+00 8.3278404607729506e+00 3.0299704641094745e+00 1 0 0
922 1 2.8015277710736184e+00 8.2581085614885676e+00 2.7405241108000307e+00 0 0 1
2987 1 2.7954755507168363e+00 9.2683355340870310e+00 1.7584593232338430e+00 1 0 0
20 1 2.0593086625437040e+00 8.5108046334550895e+00 2.0045178630962628e+00 0 0 0
2912 1 2.2764729145009834e+00 9.2332648387395047e+00 2.7504970616445510e+00 1 0 1
619 1 3.3057478979088577e+00 8.3179292776468348e+00 1.7989048798511800e+00 0 0 0
1138 1 3.9105068470598976e+00 8.2237619854894888e+00 2.7801111984266753e+00 0 0 0
692 1 3.8119092043040559e+00 9.2659972510977422e+00 1.6698420737556685e+00 0 0 1
1361 1 3.3688646993477129e+00 9.2091703049126430e+00 2.7116476393846436e+00 0 0 0
752 1 4.2590173778131639e+00 9.1651514831743359e+00 3.2603867289779638e+00 0 0 1
232 1 6.5890965189184703e-01 5.0316445108163235e+00 1.6833891268395724e+00 0 0 1
591 1 3.9010029981455463e+00 5.1603766806594811e+00 3.6341237453232758e+00 0 0 0
578 1 2.3593586248648801e+00 5.0457502325464345e+00 4.7660621459247201e+00 0 0 0
3642 2 4.1669211968685776e-01 5.1850692995284406e+00 4.5578535070246158e+00 0 0 1