LAMMPS data file via write_data, version 12 Dec 2018, timestep = 13200

4320 atoms
2 atom types

0.0000000000000000e+00 1.9309999999999999e+01 xlo xhi
0.0000000000000000e+00 1.9309999999999999e+01 ylo yhi
0.0000000000000000e+00 9.6549999999999994e+00 zlo zhi
3.8620000000001653e-02 0.0000000000000000e+00 0.0000000000000000e+00 xy xz yz

Masses

1 1
2 1

Atoms # atomic

3128 1 6.0703743899521878e-01 9.9552054487997799e-01 3.1978679140017885e-01 1 0 1
712 1 1.0803187323750405e+00 1.0257979516824685e+00 1.2852069207350183e+00 0 0 0
4116 2 4.6494436278419284e+00 7.4713430742920672e-01 2.3942272852155746e+00 1 0 0
216 1 1.8121673937996314e+00 5.0580223125731050e-01 5.4647264359446190e-01 0 0 1
573 1 2.6623084916539894e+00 8.6849971074685872e-01 1.0086837020357000e+00 0 0 0
3089 1 9.8545223327518339e-01 3.0254645941315341e+00 1.9177584078146676e-01 1 0 0
2536 1 2.3846964778363905e-01 3.8025940527394955e+00 3.5698975289885630e-02 1 0 0
3933 2 3.4656166367375136e+00 6.4726083696370096e-01 1.1495100232743227e+00 0 1 0
1461 1 4.4591037246156171e+00 7.6978355876494819e-01 6.9163330517207045e-01 0 1 1
1017 1 3.4992713951747327e+00 8.3782258838227419e-01 2.8251905484247192e-01 0 1 1
609 1 3.7406827407435981e+00 1.4865836565193415e+00 1.2783702935648165e+00 0 0 0
1178 1 4.1417084446706989e+00 5.4834004172583717e-01 1.6715107996191063e+00 0 0 1
3072 1 7.8336668280382515e-01 1.9448070084894573e+00 7.1826969065068802e-01 1 0 0
2596 1 5.5936375283841300e-01 2.8272141433723501e+00 1.2468477143713310e+00 1 0 0
527 1 1.5077749027687590e+00 2.2719372532174589e+00 1.4062168078281836e+00 0 1 1
3868 2 4.6515143140802344e+00 3.8396022915268886e+00 2.7396185737651075e+00 0 0 1
4204 2 1.1000771069187704e-01 1.5084952059658276e+00 3.1461383889975352e+00 1 0 0
3111 1 1.8380657251304207e+00 1.5986260258187026e+00 6.3303121484750202e-01 1 0 1
4115 2 1.6053563872410201e+00 2.4483979999944503e+00 5.3256244791616625e-01 1 0 1
1031 1 2.9942622064183522e+00 1.7622972775840056e+00 5.6629909784268273e-01 0 0 0
252 1 2.4483163233873819e+00 2.6288821443576262e+00 8.6182815559140824e-01 0 0 1
3162 1 2.3748073394327633e+00 1.7689861403624230e+00 1.5152799759022535e+00 1 0 1
611 1 4.1258469920865330e+00 1.7414563570344948e+00 3.5107824345882216e-01 0 0 0
1033 1 3.6029470011009779e+00 2.5327246734545148e+00 1.1119124659451853e+00 0 0 0
546 1 4.3405761817976920e+00 2.8395842089236893e+00 3.7089757554428787e-01 0 0 0
2754 1 2.1064607089076562e-01 4.4970647799036323e-01 3.2003242893858195e+00 1 1 0
664 1 4.1365275019208472e+00 3.0922914590097159e+00 4.7820764090322134e+00 0 0 0
3625 2 7.5651143207372984e-01 3.6007360968054769e+00 8.5743981774501776e-01 0 0 1
2992 1 4.7244795543168450e-01 4.4617479132339941e+00 8.0723342350767691e-01 1 0 0
2495 1 1.4153331951632546e+00 4.4844272517913524e+00 1.3006621327668633e+00 1 0 0
2636 1 1.3850654299488609e+00 4.0472512347462839e+00 3.1688790539872436e-01 1 0 1
2696 1 1.4927798842598745e+00 3.3079482974387204e+00 1.0951782750943955e+00 1 0 1
599 1 3.6732269645278220e-01 4.6526594347936188e+00 3.7927892535098149e+00 0 0 0
3143 1 2.3465377868468824e+00 3.9504146501864761e+00 9.6970742979630664e-01 1 0 1
3158 1 4.3932334991860538e+00 3.3020552016867746e+00 1.3105638607533121e+00 1 0 1
1141 1 3.3232376228158538e+00 4.4107534040071377e+00 1.4997322672623656e+00 0 0 0
3491 2 3.9171221937167573e+00 4.4355294491446591e+00 6.9751778145508159e-01 0 0 0
97 1 3.4163080845025529e+00 3.6085591087090467e+00 8.0167612313550030e-01 0 0 0
742 1 4.4750678251147615e+00 3.8227302627834252e+00 4.1719284488274355e-01 0 0 1
768 1 4.4763313342991422e+00 4.3965225554756424e+00 1.2635572828378441e+00 0 0 1
976 1 1.8120864404144496e-01 1.0652953282879938e+00 2.3632066840085990e+00 0 1 1
3411 1 8.6875821852832436e-01 3.1200415075773469e-01 2.0236330739517996e+00 1 1 1
436 1 1.1654317302732582e+00 6.8620223042697581e-01 2.9566909511244335e+00 0 1 0
675 1 1.4648522396827623e+00 1.3897390595685717e+00 2.1936446610926779e+00 0 0 1
360 1 1.9058381103867850e+00 4.8308088605807287e-01 1.6897629956558911e+00 0 1 0
944 1 2.2046627540343358e+00 7.6466475274549572e-01 2.6743290407136446e+00 0 1 1
1180 1 2.9987540998981563e+00 9.9396985776376556e-01 1.9634043158399943e+00 0 0 1
3920 2 3.1656831395798131e+00 1.3319323339635756e+00 2.8530566326778106e+00 0 1 -1
763 1 3.8677645976239208e+00 4.1652932647908170e+00 4.1809393338477090e+00 0 0 1
594 1 4.6340020705017482e+00 1.0429766068029496e+00 4.1589804775881163e+00 0 0 0
1245 1 3.9642848132135842e+00 1.3014267986093926e+00 2.4407382958881856e+00 0 0 0
12 1 4.1635515124442906e+00 4.9562575217367821e-01 3.0564562023181381e+00 0 0 0
102 1 2.9238233198208858e+00 3.4025503853317254e+00 3.5615114756573045e+00 0 0 0
3020 1 6.5022026332270022e-01 2.0056063420668053e+00 1.8265153761873345e+00 1 0 0
384 1 3.7445358058051942e-01 2.8544988445618364e+00 2.3322800574586755e+00 0 1 0
465 1 7.5584362519998161e-01 1.9750270443389477e+00 2.8331248946600960e+00 0 1 1
3709 2 1.1815618706402762e+00 3.0275126439621509e+00 1.8378315446665747e+00 0 0 0
254 1 1.5930215007845119e+00 2.5339032286822181e+00 2.4308729696440241e+00 0 0 1
4188 2 1.7358607230882778e-01 2.4117090056117099e+00 3.2294786692342550e+00 1 1 0
567 1 2.3826077858609098e+00 1.8124984346733435e+00 2.5769955771275925e+00 0 0 0
4064 2 2.2345048655137538e+00 2.6371209927548245e+00 1.7710860769516403e+00 0 0 1
427 1 2.6013291837401851e+00 2.8598644352325837e+00 2.6117084495942402e+00 0 1 0
3121 1 3.1604579794868966e+00 2.2452498143214066e+00 1.9886859470495195e+00 1 0 1
1778 1 4.1248450370599077e+00 2.2520157896410593e+00 2.0453971848821637e+00 0 1 0
607 1 3.3097758985200496e+00 2.1825262122975801e+00 3.0805026657447083e+00 0 0 0
3703 2 3.7135642551733055e+00 3.0487918079643053e+00 1.7627903958782489e+00 0 0 0
646 1 3.7094863385058057e+00 3.0224931056436239e+00 2.6219196866815913e+00 0 0 0
367 1 4.3264226508864816e+00 2.2515023225716813e+00 3.1183132238023843e+00 0 1 0
1992 1 4.6557036326248289e+00 3.0261124378402826e+00 2.2939398268244062e+00 0 0 0
3300 1 2.9355589888074185e-01 1.5937603242409665e-01 8.9430848821980002e-01 1 1 0
1300 1 6.9500842048839739e-01 3.7882601752790492e+00 1.6599378298765983e+00 0 1 0
2981 1 6.2830064376695638e-01 4.5366979544865105e+00 2.6695241028375314e+00 1 0 0
499 1 1.1700017964480978e+00 3.5370107360933196e+00 2.5803400767823117e+00 0 0 0
3476 2 1.4722307190470925e+00 4.2623985195683858e+00 2.1878969426583130e+00 0 0 0
47 1 2.9050732844321860e+00 3.3193536173676206e+00 1.6562533749251451e+00 0 0 0
114 1 2.2972551608321621e+00 4.4916057438270514e+00 1.8595403288784165e+00 0 0 0
500 1 1.9299623640972057e+00 3.5525262781582696e+00 1.9882366455258444e+00 0 1 1
614 1 2.0366741356846223e+00 4.2779665558202176e+00 2.8655394434057304e+00 0 0 0
58 1 2.9520007330318170e+00 3.8933494871889462e+00 2.5397896112793297e+00 0 0 0
149 1 3.0885819063560396e+00 4.6186298104322629e+00 5.0086235258406908e-01 0 0 1
3695 2 2.7371471266281082e+00 6.0157820604509693e-01 4.1042983706495564e+00 0 1 -1
261 1 3.9034837561651985e+00 3.9935633451788179e+00 3.0999955523862850e+00 0 0 0
275 1 4.0459475601215145e+00 3.8966439990620159e+00 2.0795137276593523e+00 0 0 1
1032 1 4.7259656182065788e+00 4.5946487283918591e+00 2.3767184738714393e+00 0 0 0
4088 2 2.7946850299362658e+00 3.7281652604453064e+00 1.9187450293124553e-01 1 0 1
380 1 1.3491892173620059e+00 3.9588471444284262e-01 4.6551039066474891e+00 0 1 0
873 1 8.7822263352432794e-01 9.4174918579630840e-01 3.9477220852783512e+00 0 1 0
831 1 2.8561530925783002e-01 2.3540156536738144e-01 4.3123295858474640e+00 0 1 0
881 1 3.0945704722138299e+00 4.7310558473035158e-01 3.2657321817063214e+00 0 1 0
3678 2 2.6203099259378817e+00 1.3537618869872176e-01 2.1738922569036419e+00 0 1 0
861 1 1.5268619816840217e+00 1.5650775609865211e+00 3.3946066588365835e+00 0 1 0
657 1 2.1935217678165202e+00 1.2055896611360613e+00 4.4234407544217804e+00 0 0 1
506 1 2.0396274484687917e+00 4.3393749606165888e-01 3.6559420770507707e+00 0 1 0
116 1 2.6819406843634574e+00 1.3785255063580626e+00 3.5511048165327792e+00 0 0 0
1815 1 4.8077868054304416e+00 1.3182105444578986e+00 1.5636275186708046e+00 0 1 0
4222 2 3.3447137143866970e+00 3.3703582610658787e+00 4.3894497388528375e+00 1 0 -1
825 1 3.3628948775675376e+00 1.3997079468117823e+00 4.4581508290062999e+00 0 1 0
977 1 3.6582980910278096e+00 4.8705999910079406e-01 4.1300764829346797e+00 0 1 0
892 1 3.7770153897378029e+00 1.3142778854514223e+00 3.4932676985144893e+00 0 1 0
336 1 2.6244602706905984e+00 2.1120305453301396e+00 4.6888357615972254e+00 0 1 0
1576 1 8.5220271723412655e-01 2.9678699028536801e+00 3.4643266756099207e+00 0 0 0
762 1 4.9447957199347586e-01 1.8913491555639932e+00 3.8896748630141671e+00 0 0 0
631 1 1.4527258636254190e+00 2.2440863327956246e+00 4.1888307629752841e+00 0 0 0
3465 2 1.5996360867114690e+00 2.4652708941459283e+00 3.3794356078538437e+00 0 0 0
240 1 2.3015511667326578e+00 3.1081150678929927e+00 4.3409141254811692e+00 0 0 0
3055 1 2.4666080405856601e+00 2.4115110779767903e+00 3.5904647505770786e+00 1 0 0
4198 2 3.0126849203908486e+00 4.7094559475509552e+00 2.2415056470275787e+00 1 0 0
2048 1 4.1164753464948207e+00 3.1746315815564539e+00 3.7293248143235025e+00 0 0 0
778 1 3.3977756342890295e+00 2.4754949876061039e+00 4.0677162037550527e+00 0 0 1
1152 1 4.2856831335428485e+00 1.9631155791927621e+00 4.2426447521849928e+00 0 0 1
874 1 2.5022753886789129e-01 3.7400628528203712e+00 3.2383089858851823e+00 0 1 0
71 1 1.1964220272809925e+00 3.2507385134484545e+00 4.4326588564015461e+00 0 0 0
64 1 8.3918965761180653e-01 4.2323545454396134e+00 4.6905088695174548e+00 0 0 0
44 1 3.1689455136341897e+00 2.7351920755498154e+00 1.6666554181981150e-01 0 0 1
2555 1 1.2388354692546328e+00 4.0324951893914669e+00 3.5470657576896998e+00 1 0 0
3507 2 4.8785733882632404e-01 3.7361335169834544e+00 4.0546257327876924e+00 0 0 1
17 1 1.8625632911977499e+00 4.0812507465048737e+00 4.4170833790565363e+00 0 0 0
3065 1 2.8732149008538892e+00 4.0986441737512020e+00 4.4063410342308789e+00 1 0 0
26 1 3.0104713202786093e+00 4.5094636833663033e+00 3.3817425817530178e+00 0 0 0
3179 1 1.9246138471369563e+00 3.3042990690918268e+00 3.2854415477427943e+00 1 0 0
3590 2 2.3461626537578879e+00 4.0333631124939719e+00 3.6289666032577421e+00 0 0 0
37 1 2.0171809192748564e+00 3.2615076463995001e+00 1.1343067440765586e-01 0 0 1
273 1 4.6275055158001441e+00 2.2283595278873110e+00 1.2116124329752322e+00 0 0 1
722 1 4.7876532004681858e+00 4.7637988480212261e+00 4.5259602907780376e+00 0 0 0
889 1 2.7980758772245049e+00 9.8193533015888748e-02 3.0758078351527851e-01 0 1 1
906 1 4.7147662933539349e+00 1.0757041484560843e-01 3.8105551253271259e+00 0 1 0
3340 1 8.2694294016989911e-01 7.0453503007254215e-01 5.5408256654534842e+00 1 1 0
263 1 1.2529480987200079e+00 9.2139577063231748e-01 6.4725421298707877e+00 0 0 0
124 1 3.6146001596565744e+00 3.5358133529521920e+00 9.4328672323726099e+00 0 0 0
4009 2 2.0163634603473579e-01 2.1156028532711901e+00 7.2254195820555012e+00 1 0 0
3673 2 4.1682990136261893e+00 3.8067021461212347e-01 9.5711105984764036e+00 0 1 -1
879 1 1.9131797299820585e+00 9.5224192547854969e-01 5.4472130556349256e+00 0 1 0
1040 1 2.8504783001690095e+00 1.3710717649350839e+00 5.4486296585542311e+00 0 0 0
3135 1 2.7185822464450951e+00 4.1252603286238487e-01 5.9091182817621544e+00 1 0 0
3474 2 1.9490253529159669e+00 4.2387475329497643e-01 6.3093526453763866e+00 0 0 0
3498 2 3.0640359975724114e+00 1.0756730152355900e+00 6.3312219107227259e+00 0 0 0
582 1 2.2567278465037917e+00 1.3431587724025045e+00 6.4195108785997803e+00 0 0 0
3865 2 4.5614129686453158e+00 6.1787591244443263e-01 5.6839961322005381e+00 0 0 1
863 1 3.5465172298854610e+00 6.5557303010433032e-01 5.3245789678441655e+00 0 1 0
682 1 3.9209695952035797e+00 8.9710287344619433e-01 6.3636629086429224e+00 0 0 0
1459 1 4.2695768484059657e+00 1.3260759739878596e+00 5.1315047414117396e+00 0 1 0
4229 2 3.6686048088190457e+00 1.4331359926672667e+00 5.6882921330882512e+00 1 1 0
981 1 4.4881213919019602e+00 3.2361007516875656e-01 4.8337549348661657e+00 0 1 0
3127 1 4.4129739093438936e-01 1.6810948185904613e+00 5.7977034923887381e+00 1 0 0
3570 2 8.0836113020398426e-01 2.5598613778089390e+00 5.6976662426650808e+00 0 1 0
730 1 1.4052643153286288e+00 1.9364240910783512e+00 5.9872471449987517e+00 0 0 0
268 1 1.0946726176001993e+00 4.7341085518210173e+00 9.2608554500532652e+00 0 0 0
1016 1 1.5771532241129540e+00 2.5315622400375108e+00 5.1263839247568290e+00 0 1 1
1008 1 1.6728275838777944e+00 2.9071507808135171e+00 6.1517094025206021e+00 0 1 0
3557 2 1.9474420346325780e+00 1.7751694817171009e+00 5.2148688430177392e+00 0 1 0
1053 1 2.5192758269356892e+00 2.3255150766334323e+00 5.6625233083859818e+00 0 0 0
602 1 3.0535629141600755e+00 3.0922204507757889e+00 5.1455676492024063e+00 0 0 0
253 1 2.8434826273210021e+00 3.3115482539269285e+00 6.1963351630587766e+00 0 0 0
3469 2 2.1986379128996547e+00 3.1474697342392841e+00 5.5317524920927097e+00 0 0 0
740 1 3.2705746184402509e+00 1.8769301403845751e+00 6.3682711765166227e+00 0 0 0
3675 2 3.3655878738931340e+00 2.5989281540450442e+00 5.8481697213531270e+00 0 1 0
1206 1 4.3944548693175669e+00 2.3073474738917388e+00 5.9536751955793790e+00 0 0 1
1573 1 3.6095821574650624e+00 2.1209306755784709e+00 5.1819210891119249e+00 0 0 0
3186 1 2.0894624915352806e+00 2.3710350156362914e-01 9.1299094784218866e+00 1 0 0
3481 2 3.2775999164461220e+00 3.4924488988245592e+00 8.4000851875247822e+00 0 0 0
875 1 2.3082863771922460e-01 1.1648144677940917e+00 4.8435299804426286e+00 0 1 0
623 1 3.2934648362642499e-01 3.3350839648747268e+00 6.0446420119956530e+00 0 0 0
3457 2 3.9941156428271224e-01 4.1515986507219154e+00 5.4460634378401016e+00 0 0 -1
138 1 1.1727518012021350e+00 3.5407538006440866e+00 5.4805973753337538e+00 0 0 0
2973 1 7.7518207888009982e-01 4.2475835853342954e+00 6.2347880009976002e+00 1 0 0
126 1 1.5965208574310348e+00 4.5758039814646114e+00 5.4302024137452563e+00 0 0 0
3530 2 4.4357004218688116e+00 4.6232700904852297e+00 6.6986863018660978e+00 0 1 0
590 1 1.9295530126081630e+00 3.9407272509961517e+00 6.2971553887043132e+00 0 0 0
270 1 2.5242701962107579e+00 4.0529748621691288e+00 5.4316896948940645e+00 0 0 0
3466 2 2.3304179522191322e+00 4.6695327346736439e+00 6.1490380675304417e+00 0 0 0
1049 1 3.9424879215165540e+00 3.2972908926777862e+00 5.8197855739404956e+00 0 0 0
3620 2 3.3946626525408412e+00 4.0964429842398555e+00 5.9476754111097536e+00 0 0 0
601 1 3.5899084970215966e+00 4.0450337607570734e+00 5.1494261117602855e+00 0 0 0
758 1 4.1373996685320975e+00 4.6252410636464250e+00 5.8681417346574767e+00 0 0 0
647 1 4.6675298788950244e+00 3.9068658855785374e+00 5.2205229342125863e+00 0 0 0
3778 2 9.1989146130010568e-01 1.2373900071416583e-01 6.3305339628863102e+00 0 1 -1
471 1 2.5226508783343049e+00 1.1011447715149478e+00 9.6346233255052738e+00 0 1 0
816 1 1.1060719708405831e+00 9.2376411166069772e-01 7.5115448340974371e+00 0 1 -1
2990 1 4.1211150281635150e-01 1.3123973416058254e+00 6.8558550683170250e+00 1 0 0
60 1 4.3196275001523199e-01 3.5505683518587827e-01 7.0172002416673331e+00 0 0 0
2961 1 1.4453112687260422e-01 7.3954560299002725e-01 8.0550237839151162e+00 1 0 -1
4232 2 1.8195563659259970e+00 9.9746247411272626e-01 7.0796150120912662e+00 1 0 1
464 1 2.5418044423404456e+00 5.4389083237434521e-01 6.9676382040926859e+00 0 1 0
442 1 2.0586065958403679e+00 5.2275668197447545e-01 7.8563122966114207e+00 0 1 0
49 1 2.4223762822325092e+00 1.5039716169920319e+00 7.4972149007532298e+00 0 0 0
3546 2 2.8861192982138895e+00 7.3526708480873404e-01 7.8002287302671327e+00 0 1 0
3427 1 3.3370951366588493e+00 1.1548957715449764e+00 7.1808015567911418e+00 1 1 0
1025 1 4.3998063245884937e+00 2.6293026207788944e-01 7.0065960904569478e+00 0 0 0
106 1 4.0131932652728350e+00 7.6120009119241905e-01 7.9010676203519026e+00 0 0 -1
3932 2 3.8438538494624703e+00 4.9750160007181826e-02 8.3267347974755026e+00 0 1 0
660 1 3.8441850990284565e+00 4.5797949247350234e+00 9.3990799745181715e+00 0 0 0
572 1 2.3751175982401573e+00 4.6887554931149564e+00 8.2273340844912806e+00 0 0 -1
28 1 1.4731515699070958e+00 1.7990267804113782e+00 7.1021572798896768e+00 0 0 0
241 1 6.8387779779867197e-01 2.4549394663856665e+00 6.5391003945860344e+00 0 0 1
282 1 8.2204493947898294e-01 2.6621590115075384e+00 7.6219142613476070e+00 0 0 0
3482 2 1.5303654270867069e+00 2.6493926321106329e+00 6.9883235448642340e+00 0 0 -1
466 1 5.5612780979765430e-01 1.7243018767658731e+00 7.9505425504049976e+00 0 1 0
789 1 6.0079939187511588e-01 2.2377751878532139e+00 4.8721942156465436e+00 0 0 0
269 1 1.8346097887514043e+00 2.4158950417541329e+00 7.7810989630378602e+00 0 0 0
2892 1 2.4531577736056223e+00 2.2999172684513258e+00 6.7686945914163150e+00 1 1 0
419 1 2.8791563042698427e+00 2.6641267395567345e+00 7.7194404019749827e+00 0 1 0
4206 2 3.2492784662844820e+00 2.0035437450176374e+00 7.3021047190757393e+00 1 0 0
629 1 2.0560253370459352e+00 3.2735239598038390e+00 7.1090013921708675e+00 0 0 0
725 1 4.1820048794376738e+00 1.7316051568846398e+00 6.9359415742125332e+00 0 0 0
845 1 3.5363667243690133e+00 2.7851577801595515e+00 6.7690816985337445e+00 0 1 0
653 1 4.1375027853149842e+00 2.4618585681376066e+00 7.7450298777733604e+00 0 0 0
580 1 4.4949215665665019e+00 2.9773023238645999e+00 6.8209916241643356e+00 0 0 0
1345 1 3.3851732241516106e+00 1.6674807889649685e+00 8.0858335469728981e+00 0 1 -1
969 1 1.0142765997280232e+00 3.3787802497512205e+00 6.8446873849347485e+00 0 1 0
1064 1 7.8247738063264327e-01 4.2796801452066999e+00 7.2643716806378027e+00 0 0 0
276 1 1.4820546549535516e+00 3.5138503931619325e+00 7.9573816998860725e+00 0 0 0
280 1 3.1348088620823256e-01 3.4589144262885609e+00 7.9858503095263202e+00 0 0 0
223 1 2.8266975429413366e+00 4.1829020579384766e+00 6.7195795995832492e+00 0 0 0
766 1 1.8715445508438582e+00 4.3692185191632120e+00 7.3162985502008295e+00 0 0 0
287 1 2.6469013333690827e+00 3.7307604521328934e+00 7.8495749326788138e+00 0 1 -1
3835 2 2.9934161695103874e+00 3.3657576777514526e+00 7.1458964870300639e+00 0 0 0
4289 2 2.7556250832068341e+00 4.5469506736793139e+00 7.4773498029880221e+00 1 0 -1
3611 2 4.4617943367701809e+00 3.2412661852337825e+00 8.0640511725248469e+00 0 0 0
1149 1 4.7405228763515082e+00 1.0278058489872290e+00 9.3870389950982620e+00 0 0 0
610 1 3.6831760949441539e+00 3.3882953304804642e+00 7.6919313033953332e+00 0 0 0
424 1 3.8584627297391201e+00 3.9503348999801084e+00 6.7012261106138640e+00 0 1 0
248 1 3.5888675754518267e+00 4.4362189846131086e+00 7.6949293880465355e+00 0 0 0
204 1 4.5297376926652122e+00 3.9811390506894972e+00 7.4918502037966590e+00 0 0 0
142 1 2.2842067201538554e+00 2.2714039377205402e+00 9.5648653064427869e+00 0 0 0
3518 2 8.7762553385366759e-01 1.0247277467344349e+00 8.4195799570988221e+00 0 0 0
291 1 3.5384350709426543e-01 4.1741864247593929e-01 9.0269917728470901e+00 0 1 0
3174 1 1.2902793784598194e+00 2.8371787205592136e-01 8.5265882013434666e+00 1 0 0
1370 1 1.3338603784572078e+00 1.0272554584333389e+00 9.2734888087957685e+00 0 1 0
3194 1 4.1405441634744244e-01 1.4957052236479498e+00 9.0080305284455289e+00 1 0 0
246 1 1.6899296646259174e+00 1.4330337552245016e+00 8.2687438572062408e+00 0 0 0
885 1 4.7895091648066979e+00 1.5090361380400421e+00 7.6982030250813258e+00 0 1 0
221 1 2.6298389759011029e+00 1.0580246993226223e+00 8.5817858063286359e+00 0 0 0
3549 2 3.0067533582916939e+00 5.1195208664448610e-01 9.2364927616729613e+00 0 1 0
3036 1 1.5572996236861525e+00 7.5973679122536331e-02 7.0358730787467625e+00 1 0 0
681 1 1.9223817877224454e+00 3.8873092560421005e+00 8.8157766594576579e+00 0 0 0
1438 1 4.6310841182683244e+00 2.0325494938091543e-01 8.7305166812769830e+00 0 1 0
271 1 3.7957901361078425e+00 8.9286475415048661e-01 8.9387102715799411e+00 0 0 0
3515 2 9.7337530391314098e-01 1.2742010008225715e-01 7.7412637415465593e+00 0 0 1
227 1 1.2970764188615296e+00 2.1215764316783750e+00 9.4259623270193451e+00 0 0 0
3136 1 5.6297724149612138e-01 2.6428619039600068e+00 8.8258367133559013e+00 1 0 0
3573 2 1.1957963452523424e+00 2.0567762109370471e+00 8.5480147891101552e+00 0 1 -1
3921 2 2.0398292719335629e+00 1.5827088397397531e+00 9.0406422075989461e+00 0 1 -1
3172 1 2.9411032620404787e-01 3.2938101225647562e+00 4.9040133338070362e+00 1 0 0
201 1 2.6940226225293586e+00 3.1962876649139087e+00 8.9942468099367723e+00 0 0 0
209 1 1.6127377243509551e+00 2.8555203882842046e+00 8.7613221265782357e+00 0 0 0
3589 2 2.2716102734044226e+00 3.0472757115548812e+00 8.2262618910845760e+00 0 0 -1
353 1 2.5030157137734625e+00 2.2173253909185568e+00 8.5584006711964200e+00 0 1 0
843 1 3.2368795433569195e+00 1.7671774760235461e+00 9.2119648557329121e+00 0 1 0
605 1 4.2140729577436282e+00 1.7748492365286315e+00 8.7224754493759900e+00 0 0 0
1177 1 4.4723219218265005e+00 2.8682191472676872e+00 8.8184563756794407e+00 0 0 0
1073 1 3.4830252263701174e+00 2.5562769610738854e+00 8.5986961177817083e+00 0 0 0
3815 2 3.8893305226568287e+00 2.3528107854979114e+00 9.3554366544204104e+00 0 0 0
247 1 4.0693346670976984e+00 3.9420470932969254e+00 8.5344910298224814e+00 0 0 0
2552 1 9.0845794229532029e-01 3.7045589336716094e+00 8.8967800274949287e+00 1 0 -1
3148 1 1.1752902613399863e+00 4.5522814984863063e+00 8.1492609036720101e+00 1 0 -1
3079 1 2.5440948903238980e-01 4.4168688824283127e+00 8.6200904595862315e+00 1 0 -1
3561 2 4.5090506428241737e+00 3.7265907100031739e+00 9.2306248952767600e+00 0 0 0
162 1 3.0023429633765706e+00 4.2102395640696200e+00 8.8545667319475303e+00 0 0 0
3883 2 4.4497439909376890e+00 2.2947817408027378e+00 5.0349597441037695e+00 0 0 1
3888 2 4.5224685043617479e+00 4.6026405265335830e+00 8.1537166190983381e+00 0 0 0
684 1 4.7582185640593782e+00 4.5692527241020819e+00 9.0159235700997744e+00 0 0 0
251 1 2.8464013437290507e+00 7.0582302362432806e-02 8.4063961450254823e+00 0 0 0
81 1 1.2411877289508433e+00 1.4297834807363172e+00 4.8524588922071210e+00 0 0 0
3528 2 4.6596940945146113e+00 1.0866255601078343e+00 8.4912908067112198e+00 0 1 -1
3790 2 4.1022413125503185e-02 4.7280945959231699e+00 7.1439449605817869e+00 0 1 0
1105 1 4.8146531676349040e+00 3.9409422589825200e+00 6.3903832607583828e+00 0 0 0
1052 1 2.2804898979254218e+00 4.4685444998175452e+00 9.5719485202508245e+00 0 0 -1
288 1 2.5881864553662810e+00 1.9218205410598921e-01 4.9345396614094277e+00 0 1 0
3722 2 4.8040388199327726e+00 2.2002022418952869e+00 8.2044703587554508e+00 0 0 0
140 1 1.0647078816092876e+00 6.6007424114561408e-04 9.6243152550207771e+00 0 0 0
3687 2 3.7083230939229267e-01 2.3740890463736384e+00 9.6515488478447757e+00 0 0 0
118 1 1.0072739059770239e+00 5.3534018064824309e+00 6.4192544563084908e-01 0 0 0
3702 2 1.4860106154713624e+00 5.3687735867719359e+00 1.3756152383160209e+00 0 0 1
732 1 9.1568248856365508e-01 6.1249397203138018e+00 1.5480607109137936e+00 0 0 1
4051 2 9.7423493806829309e-01 6.2275914372003403e+00 6.6650422020578026e-01 1 0 0
176 1 2.0506523916279842e+00 5.9898439524575133e+00 4.7908402737105682e+00 0 0 0
790 1 1.8611120311998579e+00 6.0132397943800049e+00 8.7438612352377720e-01 0 0 1
992 1 2.8822759037529355e+00 5.9501898699427542e+00 8.3845248904767367e-01 0 1 1
3907 2 2.9125102499930500e+00 5.1095090891992685e+00 1.2573892046163198e+00 1 1 0
1499 1 1.5684217251843502e+00 6.6468939279782822e+00 6.9388209067272999e-02 0 0 1
205 1 2.1678084033468981e+00 5.0030944704476346e+00 8.0415313240179498e-01 0 0 1
2977 1 3.8797483442868352e+00 5.2538156522377886e+00 1.0555116642141715e+00 1 0 0
92 1 4.5394861114654637e+00 6.0459334491061894e+00 5.8046663164157064e-01 0 0 0
787 1 3.7886335557385085e+00 6.2613226980313135e+00 1.2820429301667322e+00 0 0 1
706 1 4.7221887122246358e+00 4.9268226422436241e+00 4.2088096109158257e-01 0 0 1
1134 1 3.1106456016546900e+00 9.6003550218601692e+00 3.9214880267856329e+00 0 0 0
188 1 7.2684941150519355e-01 7.7816803514718931e+00 4.4751580965863180e-01 0 0 1
679 1 2.5679219490948363e-01 6.9663440292388543e+00 1.1138251898085541e+00 0 0 1
780 1 1.3353166210989285e+00 6.9578158014017930e+00 1.0300871104633507e+00 0 0 1
3029 1 3.8014857619919296e-01 8.0341840729701683e+00 1.4852049207392086e+00 1 0 0
3353 1 2.2592332255166689e+00 8.5859214580836767e+00 9.6481656854176492e-02 1 0 1
128 1 2.3451769535474165e+00 6.8855041894812192e+00 7.6546558282555743e-01 0 0 0
32 1 2.8869913108841692e+00 7.7250732003550793e+00 2.1330555802821990e-01 0 0 0
3026 1 1.7567958857900865e+00 7.6698342738432252e+00 3.9523114798248377e-01 1 0 0
3648 2 3.0652987369927280e+00 4.8816906219859897e+00 4.1834322398924133e+00 0 0 0
3071 1 1.7743686473990172e+00 8.1767072205895452e+00 4.1611335633593622e+00 1 0 0
785 1 3.2954077250815428e+00 7.4091116066836387e+00 1.2167008888945268e+00 0 0 1
555 1 3.3124868209158076e+00 6.7546607939273207e+00 4.0311013916510585e-01 0 0 0
927 1 4.2361357540209879e+00 7.2139186416772727e+00 8.3931227079131610e-01 0 1 1
39 1 8.7277552067499753e-01 9.3038867079147209e+00 1.1986248420464105e+00 0 0 0
701 1 1.1997428478668739e+00 8.6390763568734084e+00 3.7045061151079967e-01 0 0 1
211 1 1.3828976641520156e+00 8.1652547502074722e+00 1.3227682730336501e+00 0 0 1
3066 1 1.5641506840304664e-01 8.7512832567665804e+00 6.0625910082951451e-01 1 0 0
3524 2 2.3831481336729676e+00 8.3531790892080764e+00 4.7325328507854705e+00 0 0 0
152 1 2.5024525179493495e+00 8.2165875980763214e+00 1.0050126989644432e+00 0 0 1
13 1 1.8857759936817629e+00 9.0813392583908108e+00 1.0160727317775642e+00 0 0 0
1143 1 2.9610030213892897e+00 9.2032362476419411e+00 8.6269309766518210e-01 0 0 1
170 1 2.5715972195693340e+00 8.6382281928905957e+00 3.7593509703504790e+00 0 0 0
1208 1 3.5590025761213764e+00 5.6105822164488846e+00 1.1664300683420058e-01 0 0 1
3215 1 4.0837848495541476e+00 8.7052482065873189e+00 1.7880924188520299e-02 1 0 0
654 1 4.0034673625483661e+00 9.3120408973174005e+00 4.3254255252468967e+00 0 0 0
695 1 3.6543953931260900e+00 8.3018322512045124e+00 8.5120800411518738e-01 0 0 1
796 1 4.0843875290604394e+00 9.3277577355350054e+00 8.8057412981858119e-01 0 0 0
3646 2 4.5540870335606813e+00 8.7923973652153276e+00 1.3931627476264357e+00 0 0 1
381 1 1.7595997472331326e+00 9.6101251001259360e+00 1.9156540325513709e+00 0 0 0
3104 1 4.7102227215361037e+00 8.2285557974752983e+00 6.6165588011032894e-01 1 0 1
2703 1 6.7798286009740749e-01 5.7008286063959428e+00 2.5963048773970607e+00 1 0 0
3149 1 1.5625165628423150e+00 5.0929055046501261e+00 2.2146050835193085e+00 1 0 1
4201 2 1.1984926423526108e+00 6.4174417062408313e+00 2.3532913178924555e+00 1 0 0
1118 1 3.5645672365563876e+00 8.5331608847852394e+00 3.6564414891593393e+00 0 0 0
3210 1 1.3517031781544939e+00 5.1073102109361468e+00 3.2451974483002926e+00 1 0 1
100 1 2.3340292851706499e+00 5.6293473697254326e+00 1.7737381010892550e+00 0 0 0
361 1 1.8134367750400426e+00 6.0290637263004419e+00 2.7544170473854881e+00 0 0 0
4273 2 2.6824735397771402e+00 6.0766683457079722e+00 2.4975176558513152e+00 1 1 0
3014 1 2.4639155364478884e+00 5.1620005005036784e+00 2.7039703196017824e+00 1 0 0
411 1 3.3196772850529581e+00 5.4647792358958460e+00 1.9539869688342117e+00 0 1 0
3195 1 4.3957565712040676e+00 5.6614769113052219e+00 2.2218793769381406e+00 1 0 0
21 1 3.6164304697025140e+00 6.3168711129367754e+00 2.5082612119562024e+00 0 0 0
4081 2 2.2182774647537862e-01 7.4081541125022667e+00 4.3856613548961771e+00 1 0 0
171 1 7.7429534462625760e-01 7.1387794059364849e+00 2.0741040415392513e+00 0 0 1
4308 2 8.1586371762179721e-01 7.4448888019157904e+00 2.8539344404528801e+00 1 1 1
3167 1 9.9701510904670054e-01 6.5860882348672112e+00 3.2626421643210048e+00 1 0 0
1253 1 2.2400629857031782e+00 4.8797606367090065e+00 3.8059015465394257e+00 0 0 0
616 1 2.8580767265799438e+00 6.7711431281844314e+00 4.6993663713599290e+00 0 0 0
4142 2 1.5631031382408347e+00 7.4426248293336910e+00 1.7763374553319866e+00 1 0 1
187 1 1.6517575169360519e+00 7.2533316652115145e+00 2.6903913675441875e+00 0 0 1
574 1 2.8641193800876126e+00 6.5212745348652126e+00 1.7310284271384129e+00 0 0 0
113 1 1.7980564029305162e+00 6.6438489060851866e+00 1.8357075130311593e+00 0 0 0
776 1 2.4376420606748739e+00 7.4355798377107583e+00 1.7130000314338518e+00 0 0 0
178 1 2.6542301923571570e+00 6.9180901924607641e+00 2.7089649436605230e+00 0 0 0
109 1 4.2187202506517041e+00 7.9490990028548403e+00 1.6530332033436026e+00 0 0 0
2994 1 3.4642655032123595e+00 7.4481942119668982e+00 2.3465566788196570e+00 1 0 0
693 1 4.3379371865404952e+00 6.9523891714396040e+00 1.8956564076401607e+00 0 0 1
759 1 4.3074595391919690e+00 7.0395067301309640e+00 2.9114758949410167e+00 0 0 1
3086 1 1.0253272285759987e+00 8.1545870601606811e+00 2.2946681743426782e+00 1 0 0
3462 2 1.2619139688061891e+00 8.8881497482399041e+00 1.8449528986807393e+00 0 0 0
2610 1 3.5183147871123277e-01 8.9166344637618558e+00 2.0153488238906894e+00 1 0 1
2998 1 2.9717956779506660e-01 8.7062160350394553e+00 3.0441083695382960e+00 1 0 0
108 1 1.1108269414211649e+00 9.2696178485264422e+00 2.6708852560328578e+00 0 0 0
3559 2 2.6934540661825584e-01 9.4998373341601123e+00 2.6292846380494241e+00 0 0 0
2544 1 1.7017580995065926e+00 8.3165443836716229e+00 3.0841402172399710e+00 1 0 0
922 1 2.7337800790599425e+00 8.1624134363196212e+00 2.7814137987454184e+00 0 0 1
2987 1 2.8147795884388609e+00 9.2906210716023079e+00 1.9302530979421200e+00 1 0 0
20 1 2.0750006683275606e+00 8.5261779736333168e+00 2.0126855175869260e+00 0 0 0
2912 1 2.2835792734447673e+00 9.2495396574922726e+00 2.9072371414435514e+00 1 0 1
619 1 3.1449744343470960e+00 8.3528402031804525e+00 1.8415550891733461e+00 0 0 0
1138 1 4.0645103539977701e+00 8.1941884824086344e+00 2.7479937590832191e+00 0 0 0
692 1 3.9129309614184580e+00 9.0117116053828550e+00 1.9161663443655033e+00 0 0 1
1361 1 3.3979899634595627e+00 9.1880765365099748e+00 2.8274008705342104e+00 0 0 0
752 1 4.3685539194862280e+00 9.1641912709271551e+00 3.1650290000642651e+00 0 0 1
232 1 5.5119809805036779e-01 5.0565974299346959e+00 1.6614792224465074e+00 0 0 1
591 1 4.0564069255797097e+00 5.0930900818106766e+00 3.6728143720019517e+00 0 0 0
2660 1 9.4076472547544893e-02 5.9231747677630704e+00 7.2379813892619194e-01 1 0 1