LAMMPS data file via write_data, version 12 Dec 2018, timestep = 1069200

4320 atoms
2 atom types

0.0000000000000000e+00 1.9309999999999999e+01 xlo xhi
0.0000000000000000e+00 1.9309999999999999e+01 ylo yhi
0.0000000000000000e+00 9.6549999999999994e+00 zlo zhi
3.1282199999999989e+00 0.0000000000000000e+00 0.0000000000000000e+00 xy xz yz

Masses

1 1
2 1

Atoms # atomic

1332 1 3.3072462411556733e+00 2.1673812546546962e+00 1.2269151339153279e+00 0 1 0
292 1 4.8690200964196553e+00 4.4027019708941912e+00 7.0086764251767619e-01 0 1 0
565 1 3.8841877268428839e+00 3.2307606526011945e+00 3.1300580403140175e+00 0 0 0
517 1 4.9753716784720092e+00 2.1488214378474955e+00 2.0249739907537623e+00 0 1 1
573 1 1.1257496881827731e+00 9.9359387762574847e-01 9.8939833988034520e-01 0 0 0
336 1 1.2933116442758186e+00 2.3560031443285889e+00 4.7030499762520659e+00 0 1 0
1392 1 3.6155994320360203e+00 1.9397047027908234e+00 2.2073441180117048e+00 0 1 0
3933 2 1.9815580666536339e+00 6.8205384464997154e-01 1.1339389152410160e+00 0 1 0
1461 1 2.8420689412310125e+00 8.0904439451108756e-01 7.3831895761550792e-01 0 1 1
3465 2 4.5191254270607673e-01 2.2865666510413143e+00 3.1674683133845702e+00 0 0 0
609 1 2.2350018676719121e+00 1.5287086122883318e+00 1.3687223928149985e+00 0 0 0
1178 1 2.5351339097905652e+00 4.6721338958630754e-01 1.7309401994330553e+00 0 0 1
1063 1 4.7361925240632861e+00 2.7202660261898359e-01 2.9165100204702274e+00 0 0 0
1713 1 4.2409734051986305e+00 2.6646043059233575e+00 5.0114958353218630e-01 0 1 0
1216 1 5.1671301683286908e+00 2.6347410974567134e+00 1.1308124293649002e+00 0 0 0
3590 2 1.6936825659494219e+00 4.3667674269403438e+00 3.1434501574879605e+00 0 0 0
891 1 4.7712369894445654e+00 2.1014037159123657e+00 4.0515480352897351e+00 0 1 0
3111 1 4.8880388955894716e-01 1.8768219557383474e+00 5.8171794729870951e-01 1 0 1
3952 2 4.6853546665503298e+00 1.9208208766046944e+00 8.3638890705646640e-01 0 1 0
1031 1 1.6387445334161244e+00 1.8960723767793783e+00 5.9768880369194410e-01 0 0 0
252 1 1.2270425610972997e+00 2.8511188015153568e+00 8.8310607854395029e-01 0 0 1
3162 1 1.0610933209164777e+00 1.7983121195405609e+00 1.5834296406932604e+00 1 0 1
611 1 2.6634396498774686e+00 1.7381710214527644e+00 2.8793544159695800e-01 0 0 0
1033 1 2.4515633849629235e+00 2.6131185255554437e+00 9.5989515435756401e-01 0 0 0
664 1 2.9961852751011437e+00 3.0503602644904948e+00 4.6992464901281092e+00 0 0 0
1815 1 3.2403271634693684e+00 1.1746671851345587e+00 1.6182612271066752e+00 0 1 0
699 1 4.7987594044354474e+00 3.0741720211796202e+00 4.5018895792510687e+00 0 0 1
2079 1 4.8575245531982754e+00 3.6560589564230721e+00 3.5120757723159670e+00 0 0 0
1162 1 4.0157882031697962e+00 3.7870121811202813e+00 4.0656902880644266e+00 0 0 1
3115 1 4.7282598176294286e+00 4.0535809579802171e+00 4.7903554365954149e+00 1 0 0
1355 1 5.0690390903347478e+00 3.4412061264507741e+00 2.5556286372699677e-01 0 1 1
3491 2 3.0739983742269925e+00 4.2452128494260473e+00 9.9178422487314755e-01 0 0 0
1032 1 3.8436111660049894e+00 4.6404154466752434e+00 2.3614997723802014e+00 0 0 0
3143 1 1.4204006540320417e+00 3.9427132023900255e+00 8.4110759582864392e-01 1 0 1
3158 1 3.3329094240253574e+00 3.2665320969865186e+00 1.1705517215740877e+00 1 0 1
1054 1 4.9234393862921193e+00 2.8736455788469666e+00 2.7856796086448292e+00 0 0 0
4222 2 2.2420982910717360e+00 3.5030125548787514e+00 4.3619016568771158e+00 1 0 -1
97 1 2.4113231760669782e+00 3.6678389712780097e+00 7.9855849071463347e-01 0 0 0
742 1 3.5427470385419526e+00 3.9588166989820204e+00 3.3272388560963223e-01 0 0 1
768 1 3.8580544348886781e+00 4.5057666566244805e+00 1.1648327869669968e+00 0 0 1
4295 2 3.8954730866506893e+00 1.7936606071075598e+00 3.9151046715344373e+00 1 1 0
1246 1 1.3008201607691019e+00 4.8275410139835828e-02 1.4589776705217601e+00 0 0 1
4119 2 5.5083194275014993e+00 4.5632554258585429e+00 1.3188462467150721e+00 0 0 0
767 1 5.1608027497562823e+00 4.6091762163740748e+00 4.0019078338564062e+00 0 0 0
360 1 4.5069396843856030e-01 6.3390520405162265e-01 1.7311896872634844e+00 0 1 0
944 1 6.7048827675858846e-01 8.6107832379139759e-01 2.7503243756323821e+00 0 1 1
1180 1 1.5902364328987624e+00 9.6148908551234957e-01 1.9701629296096406e+00 0 0 1
3920 2 1.8427572260997143e+00 1.8422195075912606e+00 2.1877817437313682e+00 0 1 -1
763 1 2.9413531041589258e+00 4.1824713119725709e+00 4.0462102141582346e+00 0 0 1
967 1 3.6907817737032218e+00 1.4589710461682472e+00 5.3720636406763966e-01 0 1 1
1245 1 2.5802171738710658e+00 1.4462247293426260e+00 2.4009348560054939e+00 0 0 0
12 1 2.5937885827108453e+00 5.2723809138580324e-01 3.0537002106587754e+00 0 0 0
102 1 2.0932446063706829e+00 3.6817306844841724e+00 3.4860680035301894e+00 0 0 0
3750 2 4.9347323515018182e+00 3.0590302579304627e+00 1.8220346054949919e+00 0 0 0
554 1 4.3086748153896091e+00 3.5745349864702196e+00 9.9814822187269503e-01 0 0 0
717 1 4.8736407853773160e+00 4.4850227852628510e+00 2.9273074185216603e+00 0 0 0
1488 1 4.8050557574140278e+00 4.5987100809168338e+00 1.8450171484219196e+00 0 0 0
2036 1 5.0876205479341685e+00 1.8762954007902068e+00 3.0672677965127355e+00 0 0 0
506 1 3.1292347712677560e-01 5.5437413670282076e-01 3.8015718453372371e+00 0 1 0
567 1 1.0946021142995828e+00 1.8596619883576386e+00 2.7068363672522104e+00 0 0 0
4064 2 1.7293186648016092e+00 2.2910388828215629e+00 1.4164108044066224e+00 0 0 1
427 1 1.0387344830936462e+00 3.9384103953165206e+00 3.5538701292689487e+00 0 1 0
3121 1 1.4651767533708504e+00 3.6782741919188706e+00 2.6467808528768106e+00 1 0 1
1778 1 1.4055156329816119e+00 2.6583526547955039e+00 2.1081864657164142e+00 0 1 0
607 1 2.0245181649758757e+00 2.3316479141639141e+00 2.9609478762486492e+00 0 0 0
3703 2 2.6469633221753326e+00 3.1357654448144134e+00 1.6041036646644034e+00 0 0 0
646 1 2.5043302665740002e+00 3.2225055889300505e+00 2.6258388638260337e+00 0 0 0
367 1 3.0981440122546364e+00 2.3781169420852155e+00 3.0324990879709901e+00 0 1 0
1992 1 3.4824679732578647e+00 3.0416999276079766e+00 2.2105926969706240e+00 0 0 0
1818 1 4.3058671102300501e+00 1.0292489722199720e+00 4.2344650758209870e+00 0 1 0
1487 1 4.0793038201855181e+00 8.5542363361529827e-01 2.2460689362700994e+00 0 0 0
3715 2 4.2221176663228839e+00 2.5918508020915927e+00 2.4340718793059990e+00 0 0 0
1497 1 4.2535830020651364e+00 1.5913309024577735e+00 1.4710253696816620e+00 0 0 0
114 1 1.4577529250535077e+00 4.4323352350259206e+00 1.8560580928933452e+00 0 0 0
47 1 1.9373495189323489e+00 3.5422611923695442e+00 1.7130276439049796e+00 0 0 0
1307 1 4.4269749700865075e+00 1.1565147481862919e+00 3.2658726441625192e+00 0 1 0
500 1 8.9587870483522303e-01 3.5265940184567328e+00 1.7971934424533345e+00 0 1 1
614 1 9.2542470214425143e-01 4.5891196116191031e+00 2.7469210709331229e+00 0 0 0
58 1 2.2954604369309322e+00 4.3716047323930107e+00 2.5430787141029878e+00 0 0 0
677 1 4.1707366331412832e+00 2.6436844780018420e+00 1.5582103906660687e+00 0 0 1
3864 2 3.8462516915829830e+00 4.5902238460854328e-01 3.8016804453014621e+00 0 0 0
261 1 3.1718801473762750e+00 4.0781790373949560e+00 2.9678967532030631e+00 0 0 0
275 1 3.0284660165092658e+00 4.0762622468787981e+00 1.8686303390325552e+00 0 0 1
3825 2 3.8894958185664210e+00 3.7931877811995185e+00 1.6955184497557714e+00 0 1 1
3746 2 9.7537963256737981e-01 4.4866352717347837e+00 3.0869500538885397e-01 0 0 1
889 1 1.0960469561635069e+00 1.4832234146258327e-01 3.0355334779796539e-01 0 1 1
1231 1 4.1214552951003380e+00 2.1700438692137620e+00 3.1990989619938435e+00 0 0 0
17 1 8.4512064330722159e-01 4.3416171197879692e+00 4.5208447481548291e+00 0 0 0
881 1 1.6554208425662740e+00 9.8571405193636119e-01 3.0774181490578285e+00 0 1 0
878 1 3.8675129886470634e+00 2.6739773932180793e+00 4.1811956680377209e+00 0 1 0
1017 1 1.9518631947827905e+00 9.5162914416051037e-01 2.4840763173807523e-01 0 1 1
657 1 7.4999235251975382e-01 1.4577334241335700e+00 4.5344431723365073e+00 0 0 1
3862 2 4.4381218569873742e+00 1.7093762122144738e+00 2.4859767279746814e+00 0 0 1
116 1 1.2902900724959758e+00 6.9531246315919160e-01 3.9883969806267627e+00 0 0 0
273 1 2.5789343511329448e+00 2.3612552041353827e+00 1.9835416487703901e+00 0 0 1
3560 2 4.8159571776428240e+00 8.0353424638807891e-01 1.4274768493175760e+00 0 1 1
825 1 1.9409965662532449e+00 1.4801606740176083e+00 4.5790695389432683e+00 0 1 0
977 1 2.2926514200725641e+00 6.4793131056823294e-01 4.1760982943684155e+00 0 1 0
892 1 2.4001708236665178e+00 1.4989997376544395e+00 3.5674115385575331e+00 0 1 0
3868 2 4.1739426782396301e+00 4.0278651482917898e+00 3.1154680095815102e+00 0 0 1
636 1 4.4439945078875418e+00 3.6800149930977848e+00 2.3171991695767504e+00 0 0 0
3179 1 1.1404498300455899e+00 2.8820812439776100e+00 3.2949485788344135e+00 1 0 0
3596 2 5.3858732553015454e+00 4.4253218860294625e+00 4.6421865059665508e-02 0 0 1
37 1 9.4984059128736498e-01 3.5090781248032621e+00 2.8253246956629799e-02 0 0 1
240 1 1.2182034806995334e+00 3.3528933766515614e+00 4.3234137059947466e+00 0 0 0
3055 1 1.3203429301303271e+00 1.8457841864685223e+00 3.7055650388267689e+00 1 0 0
1668 1 4.7216596600861731e+00 6.9417806061768700e-02 1.8556489134050522e+00 0 0 1
2048 1 2.9887918621877603e+00 3.2163452823537169e+00 3.6590634345276660e+00 0 0 0
778 1 2.0632516199846438e+00 2.7620843543046441e+00 3.9832550689294468e+00 0 0 1
1152 1 3.0189712420507679e+00 2.0799835773419830e+00 4.1896049680851624e+00 0 0 1
3065 1 1.8205651695112341e+00 4.2386194945582973e+00 4.2650910651246168e+00 1 0 0
4019 2 4.5723149874683537e+00 2.7967485899420739e+00 3.5575101594147562e+00 0 0 1
594 1 3.2221099522936982e+00 1.0474245412322487e+00 4.1219217839731366e+00 0 0 0
1426 1 3.3967383650977365e+00 1.3384958088669574e+00 3.1272763436414079e+00 0 1 0
1295 1 3.9976800070829914e+00 4.7151575132903130e+00 3.4258173909368748e+00 0 1 0
4088 2 1.7818845651925022e+00 3.6960154690053173e+00 3.3223578765258936e-02 1 0 1
4116 2 3.1570428627231024e+00 7.5432443284982997e-01 2.3893799382755900e+00 1 0 0
1293 1 3.6791470483437720e+00 2.6952170682266852e-01 2.9732344881242270e+00 0 1 0
734 1 5.2322842076240823e+00 3.7177112934945686e+00 1.4171645050091195e+00 0 0 1
1793 1 3.9725656818900412e+00 5.8032248101870632e-01 1.1388835956526733e+00 0 1 0
149 1 2.6082515070324233e+00 4.6475800967976557e+00 3.7038673195142308e-01 0 0 1
3678 2 9.0595708658225482e-01 1.3501500999433422e-01 2.3035730737088711e+00 0 1 0
1638 1 4.7098374117263848e+00 1.0746138508989935e+00 5.6474082101127143e-01 0 0 1
1634 1 4.0367280291280370e+00 5.6970340065652644e-02 2.4349226311826425e-01 0 0 1
546 1 3.1705600048840981e+00 2.9916348646230406e+00 1.5712147865226639e-01 0 0 0
861 1 2.9318820737134405e-01 1.5460381127333260e+00 3.5583632891920542e+00 0 1 0
906 1 3.0801006362105632e+00 1.8779025794863308e-02 3.8049966693932720e+00 0 1 0
4290 2 5.8248407656425294e-01 1.2086162571313432e-01 9.8608923126888071e-01 1 1 1
1141 1 2.4207231024945224e+00 4.7207425179892502e+00 1.3632637432306904e+00 0 0 0
216 1 2.4292407395537752e-01 7.8716307848251410e-01 5.0197834637703731e-01 0 0 1
1872 1 4.6772716609861078e+00 5.1399455987949400e-02 3.9362750841790470e+00 0 1 0
722 1 4.1014284425165828e+00 4.8208851740803631e+00 4.4553499766863336e+00 0 0 0
631 1 4.5672045075742140e-01 2.4453015243774940e+00 4.1554371700893213e+00 0 0 0
44 1 1.9733789244567193e+00 2.8507666435174350e+00 6.7779423406979566e-02 0 0 1
1459 1 2.8667239740360717e+00 1.2982049562326441e+00 5.1135550637510061e+00 0 1 0
3509 2 4.2869720809509015e+00 2.6283862023292297e+00 7.2000749184539297e+00 -1 0 0
124 1 2.6237604150778409e+00 3.7149326610603555e+00 9.3477951438746025e+00 0 0 0
264 1 3.8685538061340754e+00 2.8637605416882090e+00 5.1675727965809877e+00 0 0 0
589 1 4.1674981248402938e+00 3.4527028773838460e+00 8.2997193459909830e+00 0 0 0
660 1 3.1226146891744868e+00 4.6534735123289552e+00 9.1426915191160241e+00 0 0 0
1040 1 1.3770880562163152e+00 1.5413341728789349e+00 5.4111894698534027e+00 0 0 0
3135 1 1.0654748317427589e+00 5.4550157523174836e-01 5.7321614074116614e+00 1 0 0
3474 2 3.6515459187027050e-01 6.1006953263917341e-01 6.2326281819000764e+00 0 0 0
3498 2 1.6766592954028625e+00 9.9154819213372447e-01 6.2762170507369417e+00 0 0 0
582 1 8.2226292636440301e-01 1.3750259911233140e+00 6.3778516748724954e+00 0 0 0
3722 2 3.3178773331399976e+00 2.1760393228886521e+00 8.4246275152577681e+00 0 0 0
863 1 2.0770422723435789e+00 7.6273439804532184e-01 5.4328679486048879e+00 0 1 0
682 1 2.5636089310767858e+00 9.9293505903619594e-01 6.2797703260571476e+00 0 0 0
698 1 4.1172542450896081e+00 2.5329565228671203e+00 8.8278773886543096e+00 0 0 0
4229 2 2.3002105265294230e+00 1.6251252516024528e+00 5.6078815018110166e+00 1 1 0
795 1 4.8257187409302826e+00 9.8307887882797207e-01 8.5403913409121675e+00 0 0 0
1187 1 4.1705538845177870e+00 3.3690961703801952e+00 9.3882095665534830e+00 0 0 0
981 1 2.8613237689056819e+00 1.9492243943110710e-01 4.8704859642549785e+00 0 1 0
1873 1 4.5488062892236192e+00 1.8121501743499568e-01 7.9195475079187849e+00 0 1 0
880 1 3.8875347884031615e+00 1.4091728602148930e+00 8.7150223593895770e+00 0 1 0
432 1 4.2997612381903796e+00 1.8762272045486045e-02 5.5494396471327114e+00 0 1 0
4003 2 4.5236454618492159e+00 2.3856378955508775e+00 4.9080657524058511e+00 0 0 0
1218 1 4.8360253768135886e+00 2.7573868518940921e+00 7.9509929538662618e+00 0 0 0
1053 1 1.3728812680129561e+00 2.5747921777575988e+00 5.7901414787556078e+00 0 0 0
602 1 1.9295509793936585e+00 3.2761423497444624e+00 5.1618118563741238e+00 0 0 0
253 1 1.6791865678244466e+00 3.4617344827745775e+00 6.1732915321779718e+00 0 0 0
3469 2 1.0274257685184425e+00 3.4944784369418924e+00 5.3704939681825490e+00 0 0 0
740 1 1.8382876263713621e+00 1.8077992695104503e+00 6.3268296913316044e+00 0 0 0
3675 2 2.1843456881606125e+00 2.8649881051314381e+00 5.8603224143359363e+00 0 1 0
1206 1 2.8576510125580890e+00 2.2451841346344765e+00 5.9652958627787669e+00 0 0 1
1573 1 2.2812624079822785e+00 2.3503636885485255e+00 5.1140540350919457e+00 0 0 0
1077 1 3.4879104455687191e+00 1.3249185654559119e+00 5.9943075175063552e+00 0 0 0
3481 2 2.4959933171973789e+00 3.4129632027324162e+00 8.5279170618047839e+00 0 0 0
3880 2 5.0508604559469896e+00 3.5392309200808612e+00 8.2821430999645536e+00 0 0 -1
283 1 3.9739725466790801e+00 3.3693114766427523e-01 8.8220829834428880e+00 0 0 0
3865 2 3.0260014255413545e+00 5.6932433232360280e-01 5.6733356111713071e+00 0 0 1
1025 1 2.6934097227393861e+00 2.7627336901133137e-01 6.9551751548538592e+00 0 0 0
3186 1 4.8122403471015462e-01 3.1287776171191695e-01 9.1680784907298243e+00 1 0 0
1050 1 4.4769863230141071e+00 2.7604633670976582e+00 6.3784155851980797e+00 0 0 0
3724 2 3.2205561567123957e+00 1.0476165361221905e+00 6.9416426903342803e+00 0 0 0
1438 1 2.9641793022255416e+00 9.6852245662549519e-02 8.7008567053506063e+00 0 1 0
270 1 1.4790597783592772e+00 4.1962474605289053e+00 5.4517893670880131e+00 0 0 0
819 1 4.9352722742573896e+00 1.5448723797992512e+00 4.9675469610787122e+00 0 1 0
1049 1 2.9430031725474142e+00 3.2754854461107801e+00 5.7142263732071870e+00 0 0 0
3620 2 2.2473778827613016e+00 4.1601241024158782e+00 5.9215588394267851e+00 0 0 0
601 1 2.5292904546953592e+00 4.0810352278020368e+00 5.0411544741139362e+00 0 0 0
2050 1 3.5190453733349303e+00 3.9518572144912772e-01 7.6785243221825805e+00 0 0 0
105 1 4.2455571208045066e+00 2.0252112959784698e+00 5.6911606242390285e+00 0 0 0
885 1 3.3027687369418821e+00 1.4701496766419369e+00 7.8143268265741215e+00 0 1 0
1052 1 1.7446479100879506e+00 4.5429826427982078e+00 9.3894989435282739e+00 0 0 -1
1282 1 4.3690607878672072e+00 1.8189976270343959e+00 7.7194789050360928e+00 0 1 0
683 1 4.7693379493942434e+00 4.2875102836144947e+00 7.8655501843050670e+00 0 0 0
1035 1 4.5105615978881994e+00 1.0253215626959622e+00 5.9771285623051220e+00 0 0 0
1137 1 3.4530139251132930e+00 2.1037643001557083e+00 9.4525601249636377e+00 0 0 0
4232 2 3.5584165021771075e-01 1.1807610537312405e+00 7.0852594707941563e+00 1 0 1
464 1 9.9664513395087306e-01 4.7825585677987825e-01 6.8925384421448168e+00 0 1 0
442 1 4.9855002093269984e-01 6.9080658582760812e-01 7.8608160868225232e+00 0 1 0
49 1 1.0852388856474062e+00 1.5429761161194144e+00 7.5068648519042771e+00 0 0 0
3546 2 1.6346317224929527e+00 8.9755540309180326e-01 7.9074807695089797e+00 0 1 0
3427 1 1.9362175046569852e+00 1.0426623414950584e+00 7.1013917808718929e+00 1 1 0
3717 2 4.8038405449567607e+00 3.5752426007460132e+00 6.5644940722507803e+00 0 0 0
106 1 2.5360154982959733e+00 7.6532391045249926e-01 7.8560886189533763e+00 0 0 -1
1202 1 4.4462532595631314e+00 4.3971795640900471e+00 6.6985615921315267e+00 0 0 0
3530 2 3.6724412752693958e+00 4.6953265664287578e+00 6.4184996177967708e+00 0 1 0
3628 2 3.6906580941264400e+00 2.7097385607777817e+00 6.0106360289801284e+00 0 0 0
251 1 1.2476934341041683e+00 2.3649304154653294e-01 8.4722936015166219e+00 0 0 0
3595 2 4.1121938375907838e+00 1.0149452216979782e+00 7.8075590622690800e+00 0 0 0
151 1 5.1679077447697210e+00 2.4676386285355574e+00 5.5026482722671721e+00 0 0 1
718 1 5.0850640646388428e+00 4.3539025389775112e+00 5.8804311954691864e+00 0 0 0
3854 2 4.0671638724282433e+00 9.4369687143467962e-01 9.4965228918530382e+00 0 0 -1
3888 2 3.8896653799984393e+00 4.2197257626992419e+00 7.8506844841823948e+00 0 0 0
269 1 6.2588772906687173e-01 2.7185692859061477e+00 7.7293726489355796e+00 0 0 0
2892 1 1.1425063514290950e+00 2.3699331251193323e+00 6.8329727690398352e+00 1 1 0
419 1 1.6564325694132751e+00 2.7762983767314169e+00 7.6400073016743617e+00 0 1 0
4206 2 1.8809458978602969e+00 1.9656659577082518e+00 7.2440914398020793e+00 1 0 0
629 1 1.0045069606091301e+00 3.4738370938032772e+00 7.0480140104938149e+00 0 0 0
725 1 2.7457204823474268e+00 1.7850702685750983e+00 6.9431658121679831e+00 0 0 0
845 1 2.2000209822719130e+00 2.6933596045045358e+00 6.7353366424811014e+00 0 1 0
653 1 2.6663393576233796e+00 2.4459895652742332e+00 7.6864913811674436e+00 0 0 0
580 1 3.2787816792973121e+00 2.9276270681917009e+00 6.8379327591791439e+00 0 0 0
1345 1 1.9726080617032147e+00 1.6858659061697103e+00 8.0475037781879522e+00 0 1 -1
3673 2 2.5466207054806258e+00 4.1896711758603761e-01 9.6076291878989561e+00 0 1 -1
1630 1 4.4654911622045059e+00 1.8499152425442296e+00 9.5319886273547887e+00 0 0 0
137 1 4.9647992060040691e+00 3.9424279565614002e+00 8.9689701386427121e+00 0 0 -1
4289 2 1.7375667958053276e+00 4.8177578282530575e+00 7.5537304039833639e+00 1 0 -1
223 1 1.7300500941580710e+00 4.3766837048628444e+00 6.6485009282881009e+00 0 0 0
766 1 8.4152915630414349e-01 4.5272533478194106e+00 7.2602923277161153e+00 0 0 0
287 1 1.6054568183203624e+00 3.9272638907441513e+00 7.7485338691942705e+00 0 1 -1
3835 2 1.9098193522353877e+00 3.4497800686343236e+00 7.0634207324894520e+00 0 0 0
3883 2 3.1240572856539472e+00 2.1972339806463022e+00 5.1057506032338740e+00 0 0 1
3611 2 3.4363581489717356e+00 3.3668985890286116e+00 7.6391443390213842e+00 0 0 0
1167 1 4.1696983516401147e+00 3.4755249679492484e+00 7.2165973438936177e+00 0 0 0
610 1 2.5576337217802019e+00 3.4754014821023604e+00 7.6850905860073979e+00 0 0 0
424 1 2.5907101524857934e+00 3.6811966373469400e+00 6.5981882489436945e+00 0 1 0
248 1 2.5693593425269841e+00 4.4684618751265619e+00 7.5602419781980004e+00 0 0 0
204 1 3.3939314119377446e+00 4.1192872796312949e+00 7.1178185948443673e+00 0 0 0
1105 1 3.8073968971067647e+00 3.5510511140625942e+00 6.1883803319329216e+00 0 0 0
3697 2 5.3125927218985458e+00 4.7790950357238753e+00 8.3515586992058886e+00 0 1 0
593 1 3.7200134119025363e+00 2.6437676997562383e+00 7.8679395939837313e+00 0 0 0
62 1 4.1077526644121161e+00 4.5064750396695450e+00 5.6542692404523622e+00 0 0 0
3932 2 2.1093554459014574e+00 5.0433388798781884e-02 8.2774194228542495e+00 0 1 0
684 1 4.0874758073746271e+00 4.4371870510186051e+00 8.7879132438508680e+00 0 0 0
1127 1 4.8006186873627552e+00 1.0684428204724020e-01 6.5951442617757374e+00 0 0 0
3557 2 6.8058683952657928e-01 2.0355103114475863e+00 5.2588628089034088e+00 0 1 0
221 1 1.1403735400900330e+00 1.2291781607101768e+00 8.5755426496134195e+00 0 0 0
3549 2 1.4193070165966453e+00 5.6575938483202493e-01 9.2605595367587359e+00 0 1 0
719 1 3.5985044060856834e+00 3.6594686972763546e-01 6.3543265853857358e+00 0 0 0
681 1 8.7069237521582488e-01 4.1500275499291028e+00 8.7914482644028080e+00 0 0 0
1126 1 4.6769881238863817e+00 3.3723605215772006e+00 5.5991126173620485e+00 0 0 0
271 1 2.1303074950008445e+00 8.3861213839448900e-01 8.7805164591704177e+00 0 0 0
1149 1 3.2408188931244939e+00 8.4486306095781316e-01 9.3747689877467355e+00 0 0 0
3815 2 2.6340743361855430e+00 2.4092103184091487e+00 9.4043025204551718e+00 0 0 0
912 1 3.8187081916714263e+00 1.9836695501120405e+00 6.7051600377954781e+00 0 1 0
647 1 3.5901011646393224e+00 3.8909575674372054e+00 5.0024815858875353e+00 0 0 0
3921 2 6.1900447248310719e-01 1.8651499554743576e+00 8.9578200930809846e+00 0 1 -1
758 1 3.0866933738505997e+00 4.3152585734938773e+00 5.9620213814989018e+00 0 0 0
201 1 1.5743854497745646e+00 3.2848376272664659e+00 8.8336307970171593e+00 0 0 0
3532 2 4.0898975205317498e+00 4.2701961372840561e-02 7.0818707930325360e+00 0 1 -1
3589 2 1.0756709769903474e+00 3.2764868655698192e+00 8.1778180609002060e+00 0 0 -1
353 1 1.2269714842820412e+00 2.3264196184015442e+00 8.5289654288356544e+00 0 1 0
843 1 1.8588734383323593e+00 1.7901922416659763e+00 9.2355920514464067e+00 0 1 0
605 1 2.7986063860285531e+00 1.6069628382643941e+00 8.7905251861449774e+00 0 0 0
1177 1 3.1916461770883573e+00 2.9796742344656475e+00 8.7663420883281180e+00 0 0 0
1073 1 2.2931755252000183e+00 2.5646940940780980e+00 8.6240925854200068e+00 0 0 0
879 1 2.4259977682988926e-01 1.2930475787858169e+00 5.4379975603421427e+00 0 1 0
247 1 3.2419210348911891e+00 3.9779329095879330e+00 8.2927972954543616e+00 0 0 0
1197 1 4.1866675765885741e+00 9.6226853722000760e-01 6.9481286553170998e+00 0 0 0
590 1 8.2241086990908929e-01 4.1613252295963630e+00 6.2965519340191527e+00 0 0 0
3528 2 3.2412262889098389e+00 9.0390052075557525e-01 8.4415983565604726e+00 0 1 -1
3561 2 3.4319935553044632e+00 3.7710614157653279e+00 9.1558895913983154e+00 0 0 0
162 1 2.1916118175331052e+00 4.2181255934545403e+00 8.5099754384587420e+00 0 0 0
1699 1 3.7957718144640662e+00 8.2460032540076444e-01 5.1025698941852937e+00 0 0 0
779 1 4.8416486487911898e+00 1.8049101521798232e+00 6.7279928731383185e+00 0 0 0
1219 1 3.8710042957170070e+00 1.8031092495766967e+00 4.8296698309146784e+00 0 0 1
471 1 9.8674328379860854e-01 1.2247244526181726e+00 9.6498817018279155e+00 0 1 0
782 1 5.4003419530901349e+00 4.0904151490508456e+00 6.9705411232356758e+00 0 0 0
659 1 5.2821249753546837e+00 3.0391043586771915e+00 7.1260521656544329e+00 0 0 0
960 1 1.8500644197454477e+00 1.8649952833065314e-01 6.3891426201275774e+00 0 1 0
142 1 1.0208476437052347e+00 2.4201375716557885e+00 9.5277831006983256e+00 0 0 0
3695 2 1.3701184832109186e+00 8.4161597238607555e-01 4.9071100127105449e+00 0 1 -1
770 1 5.0341458736239622e+00 1.9977350452641744e+00 8.5854691104190799e+00 0 0 0
1008 1 5.4809728735226237e-01 3.1583343170254063e+00 6.1298740259846980e+00 0 1 0
626 1 5.5821797137302465e+00 4.7477853433776112e+00 4.9909104333459782e+00 0 0 0
3477 2 3.6458915645659717e-01 6.4501034783278913e-02 8.3660757004720825e+00 0 0 0
1269 1 1.7406810989753287e+00 1.0470625990817062e-01 7.5244213844903660e+00 0 1 0
209 1 5.3534579506771129e-01 3.1200541156790846e+00 8.7961413102017350e+00 0 0 0
3982 2 4.4531644311610794e+00 4.1989827879388599e+00 9.6278466786167343e+00 0 0 -1
3655 2 4.5521671203925047e+00 4.7798143984210539e-01 4.8426462254480844e+00 0 1 0
288 1 5.6949762878618038e-01 3.8406176540786258e-01 4.8324966569961498e+00 0 1 0
1695 1 5.6258472012571143e+00 7.6890831935194672e+00 5.2068629429381752e-01 0 0 0
1125 1 5.6290383547120229e+00 5.4099758547617567e+00 3.0014013621676505e+00 0 0 0
2544 1 1.5869251906697173e+00 8.6101986398225492e+00 2.9192493516219682e+00 1 0 0
1379 1 5.9077252310596355e+00 9.3020347310275451e+00 1.6309082286780625e+00 0 0 1
267 1 5.2704107423209852e+00 7.8100003191756109e+00 4.1224280434731231e+00 0 0 0
790 1 1.3093380879837815e+00 6.1051574304926755e+00 5.1611907357841891e-01 0 0 1
992 1 2.2960299363680976e+00 5.9064595624343825e+00 7.7451168200582265e-01 0 1 1
1094 1 4.7126729331362336e+00 5.5447291672385912e+00 3.4790386588399302e+00 0 0 1
1244 1 6.0924123299637944e+00 7.8900785813221557e+00 3.4772123131066741e+00 0 0 1
3200 1 1.2436403930563227e+00 6.2167694162998286e+00 3.8208220692856978e+00 1 0 1
3765 2 5.3213336619792733e+00 5.8400844861186743e+00 2.3168449715718746e+00 0 0 0
92 1 4.0175713527568488e+00 6.0043422185412263e+00 4.2954503232689517e-01 0 0 0
787 1 3.4081150461529237e+00 6.2719040409943005e+00 1.2525612621478228e+00 0 0 1
3841 2 4.4031083707805729e+00 6.4202909469156690e+00 1.0564008291551095e+00 0 0 1
3713 2 4.7424139177545399e+00 5.4670942927358253e+00 3.0117849670864993e-01 0 0 1
1037 1 5.1823231253236290e+00 8.0759987020512511e+00 1.5306333685997844e+00 0 0 0
1210 1 4.6586580871704300e+00 6.1443765009775095e+00 1.8023292083172961e+00 0 0 1
411 1 2.7681994822734075e+00 5.2388860999213245e+00 2.2353018028890239e+00 0 1 0
2977 1 3.2727842499677466e+00 5.3146283499067346e+00 9.0066804511020460e-01 1 0 0
1104 1 4.6199565993613199e+00 8.5955648251619650e+00 2.1962343987423649e+00 0 0 0
128 1 2.0294660686004047e+00 7.0074786424594793e+00 6.9754452277644774e-01 0 0 0
1429 1 5.2987844946893405e+00 8.8408664834693234e+00 8.4479852004760025e-01 0 0 1
1207 1 5.1534997238164006e+00 6.1256572391577668e+00 8.1529589959415605e-01 0 0 0
3755 2 5.0331463246677259e+00 6.9180022147144857e+00 2.1523299497717678e+00 0 0 1
3071 1 1.5699611586230908e+00 8.2404334340533243e+00 4.1745438747789079e+00 1 0 0
785 1 2.9077720246820533e+00 7.3415470859335530e+00 1.2329207382950558e+00 0 0 1
706 1 4.0335473228604508e+00 4.8786648697935338e+00 2.3313219457063572e-01 0 0 1
927 1 3.8677348255882595e+00 7.0417383779189233e+00 7.1466310330802274e-01 0 1 1
4103 2 3.1243007902334492e+00 5.7933655793699774e+00 4.6099209561916954e+00 1 0 0
760 1 5.0693356286806708e+00 5.5053194313602445e+00 4.4931316606513798e+00 0 0 0
1080 1 4.9708944516658171e+00 9.2899246873620065e+00 4.7587424394168556e+00 0 0 0
1705 1 5.8176197376231595e+00 8.6320946971273269e+00 4.6621123201078669e+00 0 0 0
4053 2 3.3012272909395084e+00 4.8633835939458505e+00 1.6461977017482623e+00 0 0 1
152 1 2.3951885157008759e+00 8.4639185191113704e+00 1.1055448496229965e+00 0 0 1
13 1 2.1386357984100330e+00 9.4639725509218771e+00 9.2112857001008730e-01 0 0 0
1143 1 3.1822311618158676e+00 9.1211806790369234e+00 7.6314614809959735e-01 0 0 1
170 1 2.4533943878166706e+00 8.7221964396953329e+00 3.7143824897874436e+00 0 0 0
654 1 3.9023198145947724e+00 9.4258310702391555e+00 4.2330962649511248e+00 0 0 0
1320 1 4.5566003889880431e+00 6.7537983014095238e+00 3.9554824217379743e+00 0 0 0
205 1 1.5504460373464395e+00 4.9780328011835326e+00 6.4653955866507096e-01 0 0 1
695 1 3.5971816104318277e+00 8.1225997973851882e+00 7.7992591421283608e-01 0 0 1
796 1 4.2808153593263256e+00 9.2167016497835839e+00 7.5533610887467606e-01 0 0 0
3646 2 4.4887558042864999e+00 8.5709125111110165e+00 1.2787053708756353e+00 0 0 1
274 1 4.5683210318228191e+00 8.5910638606962912e+00 4.0739280303343408e+00 0 0 0
3538 2 5.7690014552765891e+00 7.3806533194940442e+00 1.3144940374008822e+00 0 0 -1
107 1 4.5743618529436985e+00 5.3664076398625102e+00 2.5080441246892531e+00 0 0 0
2764 1 1.7241612745134696e+00 9.5102798920004332e+00 3.5443537259744824e+00 1 0 0
1255 1 5.8484248372248757e+00 7.3889188235570735e+00 2.2482771381601010e+00 0 0 0
1118 1 3.5245678938061529e+00 8.4998443824491705e+00 3.7173328393323652e+00 0 0 0
4174 2 3.2099086135956156e+00 8.4375181722750092e+00 8.1601035372430089e-02 1 0 1
100 1 1.8430524695430668e+00 5.4947074260788016e+00 1.6439452783386368e+00 0 0 0
361 1 1.5707899138799690e+00 6.2958707782917207e+00 2.8342474098325821e+00 0 0 0
4273 2 2.2386635406418911e+00 5.9715158176249439e+00 2.3135899317327833e+00 1 1 0
3014 1 1.8070633060058003e+00 5.2341139641149033e+00 2.7048758857299875e+00 1 0 0
1397 1 4.8618196156140927e+00 9.4413932414078054e+00 1.6608737232947781e+00 0 0 0
3195 1 3.7069164174965890e+00 5.5602362365365918e+00 1.9148620930200220e+00 1 0 0
21 1 3.1176505651916098e+00 6.3078316467496842e+00 2.3753140030818902e+00 0 0 0
1419 1 5.7280426412045351e+00 6.4431798018342858e+00 1.7999203295911821e+00 0 0 1
617 1 4.8843332167390265e+00 7.1056084588820969e+00 1.2789034543832236e+00 0 0 0
32 1 2.6857927008954148e+00 7.7399473182621463e+00 1.8978456688889705e-01 0 0 0
3026 1 1.6528202735821425e+00 7.8076965017241990e+00 1.6307746889183655e-01 1 0 0
460 1 4.4531112859888573e+00 5.2946534451217868e+00 1.1188293811971193e+00 0 0 1
564 1 5.9075478561740518e+00 8.4269587451955026e+00 2.4026903660278975e+00 0 0 0
1026 1 3.8540456982748648e+00 8.2645981586676047e+00 4.7153914249021849e+00 0 0 0
1134 1 2.9867156968538624e+00 9.5494338161097634e+00 3.7628257908464260e+00 0 0 0
574 1 2.3895367955285520e+00 6.4742624750509981e+00 1.6037982579336603e+00 0 0 0
113 1 1.3862107827700740e+00 6.4432080881727751e+00 1.7518658872076056e+00 0 0 0
776 1 2.1658957089659996e+00 7.8235829453646524e+00 1.9965963059664773e+00 0 0 0
178 1 2.3016090054387446e+00 6.9647604241351608e+00 2.6095137035197480e+00 0 0 0
109 1 4.1124133456975480e+00 7.7531013038776377e+00 1.6097714797528169e+00 0 0 0
2994 1 3.1343669094270883e+00 7.3726430261237530e+00 2.2565068378583155e+00 1 0 0
693 1 3.9501023162834228e+00 6.7910035361759666e+00 1.9714102625322603e+00 0 0 1
759 1 3.9203588577716921e+00 6.8534149888187166e+00 3.0767892869559668e+00 0 0 1
669 1 2.9791509450613125e+00 7.4454878833032234e+00 3.3163027504993523e+00 0 0 0
1058 1 4.4017123472554953e+00 7.3560859372725114e+00 4.8121155292631830e+00 0 0 0
96 1 2.1711570816083130e+00 9.3842731061849225e+00 4.4994478476234221e+00 0 0 0
3524 2 2.3184340618349317e+00 8.4845340366827759e+00 4.6547191797892804e+00 0 0 0
555 1 2.9977971767726208e+00 6.7120123427511791e+00 3.3311072425333876e-01 0 0 0
1552 1 5.4813511853166910e+00 6.8492777379874452e+00 4.6179821064486228e+00 0 0 0