LAMMPS data file via write_data, version 12 Dec 2018, timestep = 72600

4320 atoms
2 atom types

0.0000000000000000e+00 1.9309999999999999e+01 xlo xhi
0.0000000000000000e+00 1.9309999999999999e+01 ylo yhi
0.0000000000000000e+00 9.6549999999999994e+00 zlo zhi
2.1240999999999985e+00 0.0000000000000000e+00 0.0000000000000000e+00 xy xz yz

Masses

1 1
2 1

Atoms # atomic

1484 1 7.1332441399983546e+00 2.5415054527846509e-01 1.9244373080787414e+00 0 0 0
2084 1 9.5388398952723072e+00 4.5189782783115788e+00 1.5748129309169237e-01 0 0 1
1526 1 4.8427509014461183e+00 3.5404359457272081e+00 4.7264096686073538e+00 0 0 0
1218 1 8.6992745212696110e-01 7.0804722453214131e-01 1.0180869786711857e+00 0 1 0
3622 2 1.7772435648069822e+00 8.1849360932203474e-01 8.1308944137173500e-01 0 0 1
1870 1 9.1754210716076710e+00 1.6815334508291391e+00 4.7073895124057918e-01 0 1 1
967 1 1.0400711590680976e+00 1.5917504539222052e+00 4.8767730345848059e-01 0 0 0
3205 1 1.9408929799057697e+00 1.6847557537412701e+00 9.4281870908969023e-01 1 1 0
1906 1 7.4163308951529601e+00 8.0667900887010935e-01 4.6412367156147063e+00 0 1 0
851 1 2.8066800265753611e+00 1.0464084288592621e+00 5.4297258610712995e-01 0 1 0
253 1 3.3621872674120805e+00 4.1468929483436823e-01 1.3366114667980653e+00 0 1 0
1190 1 3.5974664702756507e+00 1.4909191957452881e+00 1.0892362814886640e+00 0 0 1
3918 2 3.5071938567124499e+00 1.5743182991970728e+00 2.4479774154293948e-01 0 1 0
4250 2 2.3998435721607132e+00 4.5591689209367416e+00 4.1199194284908645e+00 1 0 1
1127 1 3.8157567537418298e+00 7.3211833769167234e-01 2.6925038653467265e-01 0 0 1
1554 1 4.6283498634471663e+00 1.1520637552976749e+00 8.4531619123858004e-01 0 0 1
4116 2 4.1010140712658467e+00 8.3604180290205510e-01 1.5602823405694364e+00 1 0 -1
95 1 5.1535572453518190e+00 5.9456000743245274e-01 1.5570268412611237e+00 0 0 0
2174 1 5.4339156055656010e+00 5.3750025980440386e-01 5.4099879177921550e-01 0 1 0
3602 2 7.8164525606293012e+00 2.8783970700507672e-01 3.6940173417690456e+00 0 0 0
870 1 5.4575235978890699e+00 1.6381406771674238e+00 1.2445197213358239e+00 0 1 1
1798 1 6.2847883125429735e+00 1.1346006092401788e+00 9.9075852397677933e-01 0 1 0
3688 2 3.3038614537565580e+00 3.9598059482157115e+00 4.6454174545128097e+00 0 1 0
906 1 9.1366025097379904e+00 2.9103549906881470e+00 2.1248557133383543e+00 0 1 0
1615 1 7.2404975233446711e+00 1.6482529911844412e+00 9.8037873913935958e-01 0 0 1
1458 1 7.2206242281234738e+00 5.5993161865600072e-01 8.5143691582541314e-01 0 0 0
3793 2 7.9182092132278949e+00 7.8298226530267356e-01 3.0063511096801426e-01 0 1 0
767 1 8.3264069510945600e+00 6.8020679402281137e-01 1.1193338975877580e+00 0 1 0
1359 1 8.0897461847269199e+00 1.7097095699696485e+00 2.5984262839034628e-01 0 1 1
3468 2 8.3038871029158017e+00 1.6288973693351809e+00 1.1430044145643807e+00 -1 0 1
1018 1 2.4584151744502711e+00 4.6082614106234541e+00 1.2938400360489759e+00 0 0 0
708 1 3.8766712523400870e-01 2.5786672368251109e+00 1.5604716748379275e+00 0 0 1
1042 1 2.2556020607753622e+00 4.3795383535227641e+00 1.3623608686920671e-01 0 0 0
3771 2 9.9110702155807662e+00 3.8729623682215912e+00 3.5961180629771121e+00 0 1 -1
1242 1 5.3986951107883359e+00 1.5739613408835447e+00 1.4323193708278484e-01 0 1 0
3478 2 7.1306516894811445e-01 2.4161902932269075e+00 7.5956785841308128e-01 0 0 -1
254 1 1.4199729472557334e+00 2.6220039809906037e+00 1.3597073373598119e+00 0 1 0
2960 1 8.2804066212252325e-01 1.6206706767760402e+00 1.5697869688011108e+00 1 0 0
2201 1 9.2093163701995753e+00 4.3771862244179793e+00 1.1374315661275707e+00 0 1 0
3599 2 1.9355205165073714e+00 3.2691582420623675e+00 7.8027514158272637e-01 0 0 0
622 1 2.5807599623363768e+00 2.6677768819248318e+00 6.2048986477405343e-01 0 0 1
3750 2 2.8619400591393322e+00 1.8591871341716868e+00 8.2101081278840604e-01 0 0 1
34 1 3.6444371365365997e+00 2.4370580667032455e+00 5.3386233392887494e-01 0 0 0
1065 1 2.7613672243051219e+00 2.3150990073494717e+00 1.5658226617205679e+00 0 0 0
968 1 4.7777795293884751e+00 2.3080913587670033e+00 7.0369621697717299e-01 0 0 1
3708 2 4.2673694032919736e+00 1.9846488968919527e+00 1.3188505232728056e+00 0 0 0
1166 1 4.3612786995036279e+00 3.0390035937073616e+00 1.3606113893958587e+00 0 0 1
3768 2 4.6046250574158121e+00 3.2510314298519765e+00 6.1112431441046522e-01 0 1 0
529 1 2.6462262460123283e+00 4.5689758926024657e+00 3.1209962231065616e+00 0 0 0
3757 2 6.4214065037555388e+00 1.9857568511365780e+00 1.1205632268385823e+00 0 0 1
1764 1 5.8181476571635855e+00 2.4774421137672773e+00 6.7724353079745647e-01 0 1 0
1617 1 7.0240328450356655e+00 2.7344739102409030e+00 9.1962674917964848e-01 0 0 1
1785 1 8.1470443207535084e+00 3.2131489574640776e-01 2.1901086119244559e+00 0 1 0
1499 1 7.9944600404326556e+00 2.5119626444250893e+00 8.9502898765063232e-01 0 0 1
2108 1 7.6292461719043887e+00 3.7028741608984443e+00 4.5919539222852803e+00 0 0 0
497 1 7.2375484057748785e-01 3.5451020299478575e+00 1.2906409377267594e+00 0 0 0
548 1 6.3954035563635081e+00 3.2875491831081143e+00 4.6224398628518255e+00 0 0 0
1457 1 9.9284247056351624e+00 4.7660172062418118e+00 3.5763361212926577e+00 0 0 0
2076 1 8.8947186953862225e+00 2.1476843205179668e+00 2.8469967354726879e+00 0 0 1
4042 2 4.0258861960437473e+00 9.8657402697403018e-01 4.6349918258817659e+00 0 1 0
3085 1 1.1610089350408344e+00 3.1324702720202739e+00 4.4248710087196397e-01 1 0 1
3799 2 1.3638873965947611e+00 4.3208204645605583e+00 4.9094807423810588e-01 0 1 0
171 1 1.6865533137293272e+00 3.9598425132244501e+00 1.2483102665147996e+00 0 0 1
1073 1 7.4161170579012934e+00 1.8753110737235010e-01 2.9241951279667351e+00 0 0 0
1090 1 5.6559493719621008e+00 7.9942364935114152e-01 4.6490096673121588e+00 0 0 0
656 1 3.8043836174832180e+00 3.5091407041857319e+00 4.4326150196753228e-01 0 0 1
2996 1 3.4654470321164252e+00 4.3345505187411986e+00 1.1131692848663504e+00 1 0 0
717 1 2.7025040650811638e+00 3.7438711248934724e+00 7.8874506458701765e-01 0 0 1
1538 1 9.4782300883381012e+00 1.3818012137979694e+00 3.1428079536299798e+00 0 0 0
668 1 3.3342388698875478e+00 3.2348105296699354e+00 1.3973340117774089e+00 0 0 0
124 1 5.6605723845708225e+00 3.8584579987761844e+00 4.1742922532187077e+00 0 0 0
3764 2 8.9102498584963339e+00 5.7967748844453160e-01 1.7348092037951699e+00 0 1 -1
1019 1 5.3915970976003535e+00 3.3970737446790618e+00 9.1755339711735484e-01 0 0 0
1198 1 4.5854424372428344e+00 4.1534846569429895e+00 1.1388986180894671e+00 0 1 0
3627 2 5.3366387922515619e+00 4.4388609852489624e+00 9.2781642930274266e-01 0 0 1
1098 1 8.8218552664208172e+00 2.6136133940540303e+00 1.5128402580102812e-01 0 0 1
115 1 2.3029089786092021e+00 2.9796010239496734e-01 1.2240255369407671e+00 0 0 0
567 1 6.5046929804940037e+00 3.5910582202824650e+00 1.2215518243030699e+00 0 0 0
669 1 6.1073347581376520e+00 4.4926542901106066e+00 1.5359010966531521e+00 0 0 1
3865 2 6.7292008388455598e+00 4.5069982208708357e+00 8.4744387468076510e-01 0 0 0
1051 1 5.9610795367243687e+00 4.1119455483360712e+00 3.9732646449136000e-01 0 0 0
2098 1 6.9492013845087257e+00 3.8099292159274878e+00 3.1114553314924986e-01 0 0 1
1858 1 8.7348837937999377e+00 1.9707419305465732e+00 4.3366252676888042e+00 0 1 0
508 1 6.6069469235095326e+00 4.7058554631994367e+00 3.0769401784414949e+00 0 0 0
503 1 8.6140151731048942e+00 3.4210861234254262e+00 9.3356044072823707e-01 0 0 0
1506 1 7.5847724769971920e+00 3.6627915187113409e+00 1.0616989568746993e+00 0 0 0
1564 1 8.5218814954755047e+00 4.2757195780802197e+00 3.3071136142421381e-01 0 0 1
1572 1 8.1997055892087971e+00 4.4206299884105107e+00 1.5079432918100857e+00 0 0 1
1724 1 9.3330594542988390e+00 2.6509055354157231e-02 4.0455265115988750e+00 0 1 0
1455 1 9.2874607998310754e+00 4.0837176928610947e-01 2.6014790787472637e+00 0 0 0
3844 2 1.6083197001091674e+00 4.7574011084793755e+00 1.6831582757766672e+00 0 0 0
1470 1 9.6548398856028665e+00 3.4727828363362621e+00 1.4842759897366451e+00 0 0 0
140 1 5.2010903180245804e-01 6.0921270440868003e-01 2.0080154097016405e+00 0 0 0
1491 1 4.6960146886670966e+00 4.5408557356962997e-01 4.6380533222839899e+00 0 0 -1
520 1 1.6619238486092516e+00 9.4027862591507794e-01 1.7357119272393116e+00 0 0 0
3167 1 6.7712687315152120e-01 6.6172970564497435e-01 3.0888920502439814e+00 1 0 1
715 1 1.8190061347735103e+00 6.8724970069500457e-01 2.8435884232598561e+00 0 0 0
2250 1 9.6351608028209057e+00 2.2471052661835902e+00 3.7540057957379731e+00 0 1 0
1000 1 2.6683018952178381e+00 1.2521333852256022e+00 1.5314562080251142e+00 0 0 0
4214 2 2.3417795115066200e+00 1.2134492475805667e+00 2.4028463319648474e+00 1 0 0
817 1 2.7220468273114222e+00 3.9794700984991349e-01 2.1410663963941499e+00 0 1 0
159 1 3.5964375859499178e+00 1.1312072480593844e+00 2.1180634353464076e+00 0 0 0
992 1 2.9928322211906142e+00 1.0956245764418613e+00 3.0201697812612491e+00 0 0 0
966 1 3.5310330742528189e+00 2.5395537278750241e-01 2.8594644321916434e+00 0 0 0
1134 1 3.9010903572685711e+00 1.6985194227777209e+00 2.9379427284376396e+00 0 0 1
1040 1 4.6194194762738778e+00 1.5306965678663447e+00 1.9149050076773655e+00 0 0 0
1358 1 4.4826013929595190e+00 6.3430796297548830e-01 2.3491229508233133e+00 0 1 1
1783 1 5.4127335562229186e+00 5.6229173417796319e-01 2.6976047972131521e+00 0 1 0
3878 2 5.3788118555227120e+00 1.2096879347684533e+00 2.1154960340327271e+00 0 0 1
631 1 4.8800979075532309e+00 1.3688742999315353e+00 2.9625108240504736e+00 0 0 0
3756 2 6.8986334253083328e+00 1.0679788898545404e+00 1.5476294773950217e+00 0 0 1
1357 1 6.1553409333894988e+00 7.2306665032802864e-01 1.9759142000256129e+00 0 1 1
575 1 6.0440587342297425e+00 1.3895830743852378e+00 2.9050917267148222e+00 0 0 0
722 1 6.5015994847326466e+00 1.7213346348911833e+00 1.9804106678257356e+00 0 1 0
1147 1 7.0616893279963611e+00 1.0662804859344643e+00 2.6177120849851003e+00 0 0 1
1351 1 7.7481317989927669e+00 1.2185752288037437e+00 1.7880793337984557e+00 0 1 0
3775 2 7.9918959271194119e+00 8.7233169997477500e-01 2.8242641784062630e+00 0 1 0
976 1 6.9136679022530148e+00 2.2957330217692301e-01 3.8485225251373079e+00 0 0 0
1880 1 9.1545359589602153e+00 4.6485465923001419e+00 2.6859708800611299e+00 0 0 0
3503 2 8.8501844222015880e+00 2.5249422172254059e+00 3.7181001184345033e+00 -1 0 2
962 1 3.2204742228125487e+00 4.7785660949066804e+00 2.1983994766819146e+00 0 0 0
1513 1 7.5707108528541589e+00 4.6868790525184840e+00 7.3961250580525484e-01 0 0 0
1050 1 6.4693968087572795e+00 2.9608966594253192e+00 8.1846708062654872e-02 0 0 0
1622 1 9.0119264591018613e+00 4.2238473606662073e+00 3.6339143665492823e+00 0 0 0
431 1 1.1314483989310296e+00 1.4040672307099471e+00 2.6104493509236031e+00 0 1 1
558 1 1.8681629983210244e+00 1.8874029692232843e+00 2.0486805267975976e+00 0 0 0
2962 1 1.0412296673482668e+00 2.4637225028215424e+00 2.3891001201964368e+00 1 0 0
83 1 2.2514531388790671e+00 2.7710642955271081e+00 2.5879239454328959e+00 0 0 0
166 1 2.1285150013609422e+00 1.6705132084954888e+00 3.1277736301339583e+00 0 0 0
1376 1 2.9196307617658976e+00 1.9804064705016700e+00 2.5254809200406703e+00 0 1 0
3606 2 3.0063918343261529e+00 2.8757006556887013e+00 2.1527432583955139e+00 0 0 0
2941 1 3.8816680921869042e+00 3.1810513844891384e+00 2.3602070555209091e+00 1 0 0
3608 2 3.6492834847163400e+00 2.4906428966115466e+00 2.7773306900357544e+00 0 0 0
3128 1 3.0757898047340877e+00 3.0734154341834357e+00 3.2297249716926868e+00 1 0 0
555 1 3.7205851889251158e+00 2.2653881412990726e+00 1.9464295893532582e+00 0 0 0
505 1 5.2461770510663674e+00 2.6246107670687588e+00 1.6191314102147061e+00 0 0 0
663 1 4.6078971226984518e+00 2.4120972095579933e+00 2.5549783577425438e+00 0 0 0
3686 2 4.8019100061260156e+00 3.2412572952876508e+00 2.0347606582867002e+00 0 1 0
1446 1 5.5900178781187879e+00 3.2026680148678475e+00 2.5753132790315774e+00 0 0 0
568 1 5.5527221896545207e+00 2.0291251867037130e+00 2.3152399920143689e+00 0 0 0
3703 2 5.7813203708044041e+00 3.3915669718556583e+00 1.7843988143655838e+00 0 0 0
3533 2 6.9945165095113033e+00 1.9411056408835190e+00 2.5906838394057434e+00 0 1 0
1462 1 6.2687539457788182e+00 2.6494789598820163e+00 1.6652727304274899e+00 0 0 0
1511 1 6.4242388584308632e+00 2.6170508051625858e+00 2.6697709982566451e+00 0 0 0
1561 1 7.0464882407861209e+00 3.2402421921377242e+00 2.0601052431696516e+00 0 0 0
2197 1 7.8681916260596427e+00 1.7535515564015027e+00 2.7105707440033782e+00 0 1 0
566 1 7.4320340792216442e+00 2.3001405544218252e+00 1.8413751692871789e+00 0 0 0
1437 1 8.1301445097656657e+00 3.0511948972894238e+00 1.7817737851288542e+00 0 0 0
2101 1 8.4688371069689392e+00 2.0752914626076060e+00 1.8645208162340488e+00 0 0 1
3946 2 8.2370732666521143e+00 2.5842441912508045e+00 2.4605914134471769e+00 0 1 0
1721 1 7.4271997110143912e+00 2.6665149001625230e+00 2.8279988706238113e+00 0 1 0
2421 1 8.4642692078735386e+00 3.0706410040478875e+00 3.0926461102520508e+00 0 0 0
1651 1 8.5087595576806390e+00 1.7627790824691025e-01 3.2143061114203815e+00 0 0 1
2064 1 1.7635607890568299e+00 2.3515635914207365e+00 1.1814601281625813e-01 1 0 1
840 1 7.9641183723859976e-01 4.6653479517608663e+00 1.1431881573222302e+00 0 1 1
991 1 8.7440162889124782e+00 1.1835429740596333e+00 2.4325762454822195e+00 0 0 0
492 1 7.5185052571795619e-01 4.2819193877295776e+00 3.1653607433971156e+00 0 0 0
2976 1 9.9146185315167479e-01 4.3094996296803032e+00 2.1410581611441670e+00 1 0 0
615 1 2.3472587215536329e+00 3.2483303523880975e+00 1.6320157180268147e+00 0 0 1
3028 1 1.4930182662095874e+00 3.4038967014711177e+00 2.1349445903955755e+00 1 0 0
3610 2 1.4584368015793903e+00 3.9495000327771703e+00 2.7746407040321994e+00 0 0 0
636 1 2.1527094577030566e+00 4.2248842817151848e+00 2.2367342592462047e+00 0 0 1
2965 1 1.2089467240264202e+00 3.2112404095386990e+00 3.1854761694930134e+00 1 0 0
1682 1 7.8260437578602096e+00 3.7443281891891407e+00 3.5850322611071532e+00 0 0 0
1039 1 4.0633806667940915e+00 4.2406784895560570e+00 2.0852758279244825e+00 0 0 0
4238 2 2.8764827593102380e+00 3.9676312357296886e+00 1.6909442852842720e+00 1 0 0
3619 2 3.7946922455289229e+00 3.6136487537220963e+00 3.0180341862103037e+00 0 0 1
586 1 3.0165462491541257e+00 3.7732474421337416e+00 2.4977213836459464e+00 0 0 0
1022 1 3.8798413277514112e+00 4.4722498418731886e+00 3.1443400284907308e+00 0 0 -1
1160 1 9.0590698144412869e+00 1.4023600762091075e+00 1.3883709468321881e+00 0 0 0
1440 1 4.6179577634982998e+00 3.6343201665312659e+00 2.7988388749590087e+00 0 0 0
664 1 5.2146039042172143e+00 4.0215782293851259e+00 1.9944156825268748e+00 0 0 0
550 1 4.7541125133144266e+00 4.6915218613520260e+00 2.6610074347020016e+00 0 0 0
4240 2 3.0901096159262647e+00 4.6126834532147516e+00 3.5744466045223128e-01 1 0 0
994 1 5.6091925128718927e+00 4.2190094411396375e+00 3.1498473875088631e+00 0 0 0
1428 1 7.1071531994097397e+00 4.2746289365532384e+00 1.7526603660445861e+00 0 0 0
1472 1 9.9778215182932488e+00 4.3304095811672383e+00 2.0277143243055789e+00 0 0 0
534 1 6.9304444808193253e+00 3.6191307163480984e+00 3.0664238184391430e+00 0 0 0
1271 1 6.2648058922244738e+00 3.8994592309897120e+00 2.3301491791091387e+00 0 1 0
952 1 9.0800429038932950e+00 2.4877715984948274e+00 1.1527259703034831e+00 0 0 0
3838 2 7.3849636499441091e+00 4.3286773222830384e+00 3.1208997437172061e+00 0 0 0
2946 1 9.3305032993842953e+00 6.0015011259761841e-01 6.9267681242638734e-01 0 0 0
1072 1 8.8594453412085823e+00 3.8930207387824791e+00 2.0523426481260203e+00 0 0 0
1535 1 7.8820632820852730e+00 3.8640746625653462e+00 2.4935302466032132e+00 0 0 0
3964 2 8.6512391613938622e+00 3.8873006913140533e+00 2.9453629949565570e+00 0 1 0
4263 2 6.7191183347693242e+00 4.7907805529811442e+00 2.2558567986961484e+00 1 0 0
1519 1 9.7772577523692572e+00 1.3145097076323258e+00 2.1162410732631725e+00 0 0 0
1117 1 4.9179354088009788e+00 4.0157544981953119e+00 1.9553033635644224e-01 0 0 1
1425 1 9.3560175403804990e+00 3.2414359346339507e+00 3.8282663041016449e+00 0 1 0
689 1 4.4211717467107120e-01 5.7572195174896923e-01 4.2454624597727015e+00 0 0 0
4299 2 5.5414458110499676e-01 1.4976109881848452e+00 3.4108933303741371e+00 1 1 1
3460 2 9.3190963156588200e+00 2.8388756837914055e+00 2.9861384468542549e+00 -1 0 0
4278 2 7.9084679113469791e-01 4.5365426647108977e+00 3.9845177901426219e+00 1 1 -1
194 1 1.5116557867682283e+00 3.5381864408949332e-01 4.5282950477397694e+00 0 0 0
3855 2 1.2582157267368210e+00 3.0692535251041525e-01 3.6704612439167814e+00 0 0 0
3192 1 1.3132804195773176e+00 1.1802121380546433e+00 3.7651984548606157e+00 1 0 0
3676 2 9.3669294478016987e+00 2.1024807679969717e+00 2.0531534124568944e+00 0 1 1
987 1 6.4666255354323487e+00 1.8435931786375814e+00 2.5203771114336787e-01 0 0 0
1584 1 2.2955037785342909e+00 8.8831499157401783e-01 3.8584487027325292e+00 0 0 0
3464 2 3.0583563354142869e+00 5.5432789517753467e-01 3.6245847966977953e+00 0 0 -1
652 1 3.2255500668419943e+00 1.2653084793002236e+00 4.1751011519939274e+00 0 0 0
599 1 3.8437919952705304e+00 3.6306541134486020e-01 3.9789925092823490e+00 0 0 0
3040 1 3.9983589058615485e+00 4.6335351434103682e+00 2.3661116939484544e-01 1 0 0
4264 2 4.0379207084327744e+00 8.2838610889605457e-01 3.1886231909612310e+00 1 0 1
1054 1 4.8004083414789021e+00 4.9975228598484900e-01 3.5500924312484550e+00 0 0 0
481 1 4.3011325647086105e+00 1.3940274431310262e+00 3.8573569610083425e+00 0 0 0
235 1 5.4446348011990535e+00 1.4562973655390654e+00 3.7830952871584760e+00 0 0 0
242 1 4.3851218645179131e+00 1.6040912286989459e-01 1.0841114693175893e+00 0 0 1
3856 2 6.6719728819716284e+00 8.3278883789351044e-01 3.3303352785850042e+00 0 0 0
2360 1 6.5027593202988374e+00 1.2519828520172442e+00 4.1537522815012302e+00 0 1 0
30 1 6.7193270099507778e+00 4.1292081512770791e+00 3.9535812385064797e+00 0 0 0
3772 2 2.9067874497956128e+00 1.9585849546972497e-01 5.6628378159269832e-01 0 1 1
1950 1 8.5088497966251992e+00 1.2919838177328768e+00 3.4351564055809258e+00 0 0 0
4029 2 8.1241899101110100e+00 1.3496086832048790e+00 4.1869939203048823e+00 0 1 0
580 1 7.5333055900569468e+00 1.0828022752796600e+00 3.5385176083735677e+00 0 0 0
878 1 8.4666579020763404e+00 5.6623721082068668e-01 4.1958851169984754e+00 0 1 0
1103 1 9.4167618219847196e+00 1.1114384039520853e+00 4.1892193177840609e+00 0 0 0
1505 1 4.6958331024969659e+00 4.2566502688621988e+00 3.7467927169915085e+00 0 0 0
970 1 6.2123794656958919e+00 4.5704496512165846e+00 4.8177767490144010e+00 0 0 0
1621 1 8.2120347075017506e+00 4.7196254722303248e+00 3.1296571585255522e+00 0 0 0
986 1 1.7028280307591972e+00 3.8432625229009987e+00 4.7098946080593347e+00 0 0 0
1711 1 9.6009760995940088e+00 3.3291232916227540e+00 4.4754025221173216e-01 0 1 0
3490 2 6.8720195803000239e-01 2.8280899014829926e+00 3.7368874592280390e+00 0 0 0
2562 1 5.2631219204657964e-01 1.8621893290124472e+00 4.2042342088799307e+00 1 0 -1
3080 1 1.1710878035997387e+00 2.1881087741076546e+00 3.4253900661262660e+00 1 0 0
3480 2 1.3774602554139233e+00 1.9345568123780179e+00 4.2212148044952658e+00 0 0 0
700 1 1.2431373184201417e+00 2.7627026122822671e+00 4.4278400296691016e+00 0 0 0
288 1 2.1167529716433071e+00 2.6879528662760244e+00 3.6547825562183580e+00 0 1 0
4208 2 2.1567996652487724e+00 2.7997353532587361e+00 4.5144395671203208e+00 1 0 0
543 1 2.2273824611283883e+00 1.8689583519472546e+00 4.1681576444173123e+00 0 0 0
1165 1 3.1339603493472179e+00 2.0861955376098775e+00 3.5589625703244709e+00 0 0 0
802 1 3.0844537501153049e+00 2.8391087278567415e+00 4.2778038168171513e+00 0 1 0
572 1 4.0757796549611065e+00 2.7015475813014618e+00 3.4502396303296745e+00 0 0 0
1167 1 3.8722494161951637e+00 2.1519147407131318e+00 4.3308270075504076e+00 0 0 0
597 1 5.6696417696153370e-02 5.0173206923106273e-01 3.1893387597156608e-01 0 0 0
3719 2 4.1989213329574948e+00 2.9543032073897324e+00 4.2917823914117861e+00 0 0 -1
4119 2 4.6851042216344467e+00 2.1181359769263213e+00 3.4335298927815523e+00 0 0 0
1007 1 5.0133251904722105e+00 2.3429205485486087e+00 4.2048614443707013e+00 0 0 0
2164 1 5.0395252206415861e+00 3.1947182427929861e+00 3.6252736767898415e+00 0 0 1
3884 2 5.6649953831304733e+00 3.0219647623831292e+00 4.2033722921452084e+00 0 0 1
1062 1 5.5264959989075200e+00 2.3202047583369798e+00 3.3104285427416689e+00 0 0 0
1194 1 6.8007147192119648e+00 1.9154614572516613e+00 3.3745357209425335e+00 0 1 0
814 1 6.2258721410812710e+00 2.3263542926580119e+00 4.1159852208650980e+00 0 1 0
1081 1 6.1337489837361217e+00 3.1912511236648946e+00 3.5091866410485104e+00 0 0 1
860 1 7.1607418117920663e+00 2.9243920800999499e+00 3.9604235706161934e+00 0 1 1
162 1 4.7637628053775072e-01 3.3629513811776288e+00 2.3142309475621290e+00 0 0 0
1678 1 9.5310390436124521e+00 3.6740066555205906e+00 2.8145590820018995e+00 0 0 1
1071 1 7.3465016976983621e+00 1.8814581674044983e+00 4.3459953823879323e+00 0 0 -1
1573 1 7.9672228281854487e+00 2.3023225277449670e+00 3.6519850355850147e+00 0 0 0
537 1 8.3361085248996325e+00 3.0334600302470913e+00 4.2597477151205059e+00 0 0 0
1696 1 8.1975800896878166e+00 4.4962728937194143e+00 4.2152879359522224e+00 0 0 0
4041 2 9.0610361399087704e+00 6.8920936397125399e-01 3.5435341206309734e+00 0 1 0
114 1 8.2119143726001187e-01 3.6532362614570775e+00 4.0716680350055912e+00 0 0 0
386 1 5.9024666523157583e+00 5.3033563553003193e-01 3.7036415195043264e+00 0 1 0
177 1 2.1648412251477014e+00 3.6128246169373974e+00 3.1247581281576999e+00 0 0 0
1402 1 6.4490264647235263e+00 4.6967884632969936e-01 1.3160191624871503e-01 0 1 1
232 1 2.5562795180675582e+00 3.7141999795111333e+00 4.0989191012997779e+00 0 0 0
779 1 1.6564350603292892e+00 4.3879554631895976e+00 3.6830135630578340e+00 0 0 0
4148 2 1.6525215333711414e+00 3.4645530773760633e+00 3.9135018417564895e+00 1 0 0
3121 1 9.6586277584746920e+00 4.0576212627122024e+00 4.4952998169138816e+00 0 0 0
94 1 2.5327416353986840e+00 4.3870999313422109e-02 3.1856888400772561e+00 0 0 0
3127 1 3.7657384727131409e+00 3.5771437488053484e+00 3.8876417993505621e+00 1 0 0
574 1 4.1254558944037134e+00 4.3102104712399631e+00 4.6037872906847150e+00 0 0 0
180 1 5.1040059634236212e-01 4.0306334350855257e+00 4.2516920211766202e-01 0 0 1
559 1 3.2544332389768713e+00 4.5333647679277709e+00 4.0115764365917554e+00 0 0 0
628 1 7.2663726346250259e+00 4.7344442093845194e+00 4.7037530705451411e+00 0 0 0
3588 2 3.0691928388844074e+00 3.9342922887616631e+00 3.3629810401926763e+00 0 0 0
4177 2 5.6986656720721482e+00 1.7411715311505840e+00 4.6617333023514274e+00 0 1 0
1818 1 6.3704554330506520e+00 1.7789520830257943e-01 2.8446703831225286e+00 0 1 1
1001 1 7.8724333232546737e+00 3.3116338183075378e+00 1.1791866370157073e-01 0 0 0
1913 1 4.8160223214288678e+00 1.4452205744964384e+00 4.7863020970890018e+00 0 1 0
513 1 5.1517039353090626e+00 4.7864939160324038e+00 4.6897190398333617e+00 0 0 0
137 1 2.1260020025243209e+00 2.8837043668799267e-01 1.5064799683192054e-01 0 0 1
1544 1 9.8761645157513129e+00 2.3557470085546894e+00 4.8921949460690234e-01 0 0 0
500 1 6.1918573372348753e+00 6.5113200507248198e-02 1.1576298675965664e+00 0 0 0
624 1 7.3439957978521164e+00 2.3517585859171248e+00 2.2988371042442757e-03 0 0 1
1856 1 8.5048339057503064e+00 1.3293505824537004e-02 3.5382325409334908e-01 0 1 1
887 1 2.7390027638020600e+00 6.8476963415684648e-03 4.2501208718629115e+00 0 1 0
4297 2 4.4100003793438640e+00 1.3025720059187551e-01 7.8542459303691059e+00 1 1 1
501 1 6.5974898082241484e-01 2.3614860210433899e+00 9.4872411465108168e+00 0 0 -1
186 1 5.7430440530643070e+00 4.0797043272898810e+00 8.3289759213778591e+00 0 0 0
1634 1 9.6483881658652439e+00 3.9818555432106550e+00 7.6310937101683933e+00 0 0 0
3722 2 3.3874427963184091e+00 3.5489713549894825e-01 5.8626047966052202e+00 0 1 -1
2986 1 6.9715256495388156e-01 4.5700971173576294e-01 5.2646257950688291e+00 1 0 0
3545 2 1.6142165505921426e+00 8.5022104760458339e-01 5.5428081712009636e+00 0 1 0
199 1 1.1780941570077479e+00 5.9952741894068506e-01 6.3316507101808135e+00 0 0 0
80 1 2.5261501356812754e+00 4.7740939987792821e+00 7.2927653517913980e+00 0 0 0
3870 2 7.6426946519429393e+00 1.9532605412186688e-01 8.6350399395190944e+00 0 0 0
153 1 2.6026940903092575e+00 4.4194421266474171e+00 4.9982785967516836e+00 0 0 1
706 1 2.4195126255518344e+00 5.0094366882175112e-01 5.7659855670281557e+00 0 0 0
2494 1 2.2356251551196538e+00 1.0823419529906471e+00 4.9275103061503325e+00 1 0 -1
3513 2 2.9428822760485369e+00 1.2786988068322642e+00 5.4944831973079982e+00 0 0 0
842 1 3.1437308346605040e+00 6.3082688073523008e-01 5.0000350067584716e+00 0 1 0
913 1 3.4159449350380395e+00 1.2072051254985536e+00 6.1454850611802909e+00 0 1 0
1069 1 3.8585710418809720e+00 1.6148665486008769e+00 5.3008254065224039e+00 0 0 0
275 1 4.0278126172387179e+00 3.6131149856143058e-01 6.5346445355127871e+00 0 1 0
3611 2 5.1765038171198805e+00 7.4780635074340740e-01 5.4077903806104919e+00 0 0 1
3752 2 4.7946146908062266e+00 1.7037051227245921e+00 5.6158191415793750e+00 0 0 0
526 1 4.0990802721519701e+00 6.5623169486821287e-01 5.5032570120330231e+00 0 0 -1
1080 1 4.7688691765643894e+00 1.0087330989576875e+00 6.1914452869701009e+00 0 0 0
914 1 4.0178184237787473e+00 3.0631936659976539e-01 8.9648578446362688e+00 0 1 0
1128 1 5.6100771048361473e+00 1.4635044139187858e+00 5.5461340849489487e+00 0 0 1
724 1 6.4121630883470218e+00 7.6455771829927166e-01 5.3098692327767187e+00 0 1 0
1498 1 5.6198192359109953e+00 4.9074539068227524e-01 6.0955132864845805e+00 0 0 0
1683 1 6.5398129693581941e+00 1.0642727417283415e+00 6.3556368878148737e+00 0 0 0
1199 1 6.4707610293963604e+00 1.9771307931616509e+00 5.0306233176668087e+00 0 1 0
4081 2 5.4921839528028116e+00 3.9178367881987888e+00 9.1785478146265440e+00 0 0 -1
4122 2 7.1141750742280143e+00 1.4973730005860302e+00 5.1060013278626171e+00 0 0 0
1349 1 7.4871454013568153e+00 9.6846182835308714e-01 5.7987101998886939e+00 0 1 0
889 1 8.2462188481179872e+00 1.4175023610023207e+00 5.0421490941251230e+00 0 1 0
2044 1 8.2420794013732159e+00 4.0353241250371474e-01 5.2523588990828145e+00 0 0 0
1654 1 8.2816180011454943e+00 1.6175395986573058e+00 6.2260456805051154e+00 0 0 0
1907 1 8.5629718299398156e+00 4.1758973907374780e-01 6.2531846052062319e+00 0 1 0
3821 2 1.2097517037633962e+00 2.5469115559266731e-01 7.0802443841091804e+00 0 1 0
3598 2 6.2643259161543989e+00 2.7301260780497905e-01 6.6538599880781009e+00 0 0 0
134 1 7.3700127337576449e-01 2.8134205500851381e+00 6.0823027107739982e+00 0 0 0
1955 1 9.5075153620786015e+00 3.7614375918290883e+00 6.6024312416014315e+00 0 0 0
160 1 2.3639457628853919e+00 4.4213492084725470e+00 6.0709258428493920e+00 0 0 0
110 1 1.1438515222112520e+00 1.5378058677334343e+00 5.8783989705757795e+00 0 0 -1
26 1 6.9819921958656561e-01 2.2212030714221438e+00 5.1642466408966845e+00 0 0 0
695 1 2.2341344550479056e+00 1.4938399391582891e+00 5.9204471218703336e+00 0 0 0
602 1 1.7727643451558046e+00 2.0528888654437667e+00 5.1086174793547441e+00 0 0 0
2586 1 1.7791810727128103e+00 2.3906952307720029e+00 6.2395222310748100e+00 1 0 0
4302 2 2.4305127447732118e+00 2.3592829432442950e+00 5.5864303903572479e+00 1 1 0
1180 1 3.4767630683637334e+00 2.5376132894913104e+00 5.6461697495918388e+00 0 0 0
1482 1 3.9315439004497286e+00 3.2979990362203107e+00 5.0117996191346261e+00 0 0 0
4220 2 8.5415245391687744e+00 3.0328778436595503e+00 7.2382422968459244e+00 0 0 -1
675 1 3.4375625597308166e+00 3.4386270643628132e+00 6.1145363000878339e+00 0 0 0
676 1 2.8471964007233699e+00 3.4089811083365800e+00 5.1810010315410242e+00 0 0 0
1114 1 4.4907276691489297e+00 2.4270691731041736e+00 5.1142575719949930e+00 0 0 0
1187 1 5.2596099571482462e+00 2.2752768971289741e+00 6.0832901699436492e+00 0 0 0
659 1 4.4423523624404000e+00 2.9720772944469203e+00 6.0905862611736925e+00 0 0 0
3713 2 5.1064168138919399e+00 3.1461920024468841e+00 5.4448236465284516e+00 0 0 0
698 1 4.2417994987926511e+00 1.9605335323367838e+00 6.3245990918973698e+00 0 0 0
1177 1 5.6233310010148152e+00 2.6075914917397691e+00 5.0574788654026435e+00 0 0 0
1853 1 6.3421263694393852e+00 2.1121969157315719e+00 6.1871420177136605e+00 0 1 1
3123 1 6.2532078204460397e+00 3.1149866563091373e+00 5.8516825458815456e+00 1 0 0
3577 2 7.0469290095532253e+00 2.7158356175218326e+00 6.0331529640994184e+00 0 0 -1
1676 1 7.1082450866654447e+00 2.8148526348560252e+00 5.1414792793416577e+00 0 0 0
1647 1 7.4453311032037313e+00 2.0118753099464390e+00 5.7274415441089648e+00 0 0 0
1049 1 8.2929496471173660e+00 2.4502925620215783e+00 5.2566058274199445e+00 0 0 0
2196 1 8.8637219833166654e+00 3.1431334597951852e+00 5.8382616527173958e+00 0 1 -1
1153 1 7.8498265741205095e+00 2.6856313622034178e+00 6.3452808781852230e+00 0 0 0
1171 1 9.7349734783354815e+00 3.6840467357351869e+00 5.4686698985410418e+00 0 0 0
1504 1 8.0338641547366603e+00 4.4426805630142203e+00 5.3099722597311700e+00 0 0 0
2453 1 7.6027888818824108e-01 3.3902357789560797e+00 5.2087791900607483e+00 1 0 0
1188 1 8.7692636954879539e+00 4.5382426616999796e+00 9.0190329916639769e+00 0 0 0
227 1 4.7952879497468439e+00 3.7428223441818953e+00 8.6477970507058668e+00 0 0 0
1079 1 1.8860435629222769e+00 3.0175176087221240e+00 5.4012441865862248e+00 0 0 0
223 1 1.3980608356848530e+00 3.8706100097115295e+00 5.8819936826776917e+00 0 0 0
1133 1 2.4354213762508787e+00 3.3420487505471255e+00 6.2181829990400868e+00 0 0 0
4300 2 7.8026710423198820e+00 1.2928618866265570e-01 5.9065423288168359e+00 1 1 0
784 1 8.6716675824835541e+00 1.5601281554256121e+00 7.1804938346608713e+00 0 1 0
601 1 3.4564029300869565e+00 4.3040085632505303e+00 5.4741538178439280e+00 0 0 0
1093 1 4.4526299640631164e+00 4.0394829881313630e+00 5.6877473749141529e+00 0 0 0
3787 2 8.0809584822721465e+00 4.2222264699967171e+00 6.1290204990916850e+00 0 0 0
2088 1 5.6987147081810203e+00 3.7853485513015683e+00 5.2941619163196565e+00 0 0 0
127 1 5.4214111107163543e+00 3.4959210106340048e+00 6.3171069521391710e+00 0 0 0
3749 2 8.9940092720038223e+00 3.9907811794460515e+00 8.4242859282255758e+00 0 0 0
1085 1 6.9229405139958580e+00 3.9431893373554989e+00 5.3096486255824402e+00 0 0 0
3016 1 6.2849695801805963e+00 4.1939182821328904e+00 6.1336990789196522e+00 1 0 0
1184 1 7.2916512460109111e+00 4.5813327209376782e+00 6.1517330347689043e+00 0 0 0