LAMMPS data file via write_data, version 12 Dec 2018, timestep = 640200

4320 atoms
2 atom types

0.0000000000000000e+00 1.9309999999999999e+01 xlo xhi
0.0000000000000000e+00 1.9309999999999999e+01 ylo yhi
0.0000000000000000e+00 9.6549999999999994e+00 zlo zhi
-5.7930000000000348e-01 0.0000000000000000e+00 0.0000000000000000e+00 xy xz yz

Masses

1 1
2 1

Atoms # atomic

3602 2 2.4220516802323564e+00 1.7312307544677313e-01 4.1438450877562545e+00 0 0 0
2030 1 8.2203874641359391e+00 3.1956562790368577e+00 4.6905463803621030e+00 0 0 0
1724 1 4.1687985591028278e+00 3.2549694906036003e-01 3.4007508223744778e+00 1 1 0
2535 1 9.1116925822021635e+00 2.7651502495267386e+00 2.6654851062374898e+00 0 0 0
3629 2 6.5661033302323695e+00 7.5809920751376325e-01 1.0974295295151111e+00 0 0 1
3500 2 6.1366270214734362e+00 9.1032578475549242e-01 3.4881573629640110e+00 0 0 1
1380 1 2.6881614738890915e+00 6.2841352523682203e-01 1.2916711763618545e+00 1 1 1
308 1 8.9486466619507237e+00 7.5957765277761791e-01 1.7095405053689170e+00 0 1 0
1570 1 8.4703728341188285e+00 4.0719535136070517e+00 1.6833548616747913e+00 0 0 1
1621 1 4.1734469447956926e+00 4.6211455795718441e+00 3.2081562573799345e+00 0 0 0
3258 1 8.1853520901477435e+00 3.6680523004470729e-02 3.1720517552956160e+00 1 1 0
1201 1 5.2622584979083573e+00 1.3105666973898231e-01 2.2357270472182136e+00 1 1 0
2684 1 9.0439560476599770e+00 4.4273831956695862e+00 3.5136338933549935e+00 0 0 0
4063 2 4.6361968080716780e+00 9.2045676407830501e-01 2.8612448422600933e+00 1 1 1
1995 1 8.8763111759535498e+00 3.7989002412259856e+00 2.6615954110881725e+00 0 0 0
1970 1 9.0006812513859291e+00 4.2243213096615060e+00 4.5706454622559072e+00 0 0 0
3824 2 8.8967066312366629e+00 2.2323345260371097e+00 2.0596847978478552e+00 0 1 0
2580 1 8.2737230619400357e+00 2.1400866493929613e-01 1.1039762979090344e+00 0 0 0
976 1 1.2802289066323005e+00 4.9532905443498088e-01 3.8263064934620554e+00 0 0 0
3699 2 9.2844120796190643e-01 2.2470786955967634e+00 1.1239979161241247e+00 0 0 0
1453 1 7.8725954777866214e-01 2.3391128976047302e+00 2.3896335596582682e-01 0 0 0
1572 1 4.2293678712068701e+00 4.6893354959566977e+00 2.1134803751214202e+00 0 0 1
751 1 4.1868902422041776e-01 9.4696355251641584e-01 2.9597776348104401e+00 1 1 0
628 1 2.6751577767045061e+00 4.1720877831571732e+00 4.5378317813061395e+00 0 0 0
3083 1 9.0150658801541752e+00 7.1758225533635966e-01 3.3230188414222273e+00 0 0 1
1832 1 6.6612522089282189e+00 5.3295989972899638e-01 4.5385535641008152e+00 1 1 0
1508 1 7.2368514643294306e+00 2.6811442261467974e-02 3.7167581280103268e+00 0 0 0
1040 1 3.6958960080241876e-01 1.6209624339443793e+00 1.2190361405366632e+00 0 0 0
2485 1 9.1374971557597640e+00 3.4115136576902030e+00 1.1007012876316105e+00 0 0 0
3801 2 4.5605192503057816e+00 2.3206762425726746e-01 1.3501519920018794e+00 1 1 1
4264 2 7.6972802739320589e-01 1.7241771684607323e+00 2.7367594415315311e+00 1 0 1
1906 1 1.8990285255935500e+00 7.0602331669242968e-01 4.6553356946124858e+00 1 1 0
1358 1 2.0401667987542585e-01 2.4631659035557843e-01 2.1288552033110482e+00 1 1 1
4119 2 5.7407356710992596e-01 2.6130698940339037e+00 3.6447988482412481e+00 0 0 0
2555 1 8.0821701387667950e+00 4.7114774535514723e+00 3.9872024117064515e+00 0 0 0
663 1 1.8650554001828690e-01 2.4066139406849492e+00 2.8216612699353059e+00 0 0 0
235 1 4.8419723981505675e-01 1.7038289317060922e+00 3.5819905897500912e+00 0 0 0
1963 1 4.9794563946259709e+00 2.9074588336721692e+00 4.7553191083704105e+00 0 0 0
4122 2 3.2190005425801287e+00 1.7430755681498749e+00 4.5511409670160896e+00 0 0 0
4160 2 9.3174730048165024e+00 2.6094246142705364e+00 4.1917259589199682e+00 0 0 0
3884 2 1.0632285945331936e+00 3.0492394601498800e+00 4.7385084047353070e+00 0 0 1
1505 1 5.1430976206783940e-01 4.2454741374733400e+00 3.9357036131561438e+00 0 0 0
1007 1 6.0754309385700545e-01 2.2528095679666507e+00 4.4646082289931890e+00 0 0 0
2952 1 8.8631150338067179e+00 3.8100944265238064e+00 1.5739894773085017e-01 0 0 0
1440 1 1.7729880874528328e-01 3.3943035980789578e+00 3.3337053790079092e+00 0 0 0
2164 1 1.7239012788524133e-01 3.2164326057845671e+00 4.4057466622146597e+00 0 0 1
1783 1 9.0344565021510015e-01 1.0943214776568366e+00 1.9872332403834581e+00 1 1 0
505 1 8.3293585978306806e-01 3.0544668822171412e+00 1.4174371018527792e+00 0 0 0
568 1 8.8512411821494108e-01 2.2152736200932015e+00 1.9856766687622229e+00 0 0 0
575 1 1.4177345686352019e+00 1.2743688549896230e+00 3.0037107061679857e+00 0 0 0
1798 1 6.2092237942025552e-01 6.2582738014675510e-01 1.1130309688837832e+00 1 1 0
1062 1 1.2456909500817945e+00 2.3642423608640848e+00 3.1443435632566175e+00 0 0 0
664 1 7.9385848522494873e-01 3.9987063213483656e+00 1.8577493595019845e+00 0 0 0
3856 2 2.0021472395169280e+00 5.6045841905543936e-01 2.8972057725352176e+00 0 0 0
1019 1 9.1656977709264775e-01 3.9839379022313417e+00 7.1939538194614872e-01 0 0 0
1976 1 8.4667842134704241e+00 3.0185070202949973e+00 1.9029897557344309e+00 0 0 0
1446 1 8.1992774779554234e-01 3.1462854732708241e+00 2.5847542686821998e+00 0 0 0
878 1 2.9014402088052726e+00 9.1923133683151448e-01 4.4844290560718933e+00 1 1 0
850 1 3.5687232072037678e+00 3.0718410107948024e-01 2.5014969130781397e+00 1 1 0
1644 1 4.3892052434491200e+00 3.7691443102667672e+00 4.6444713606028598e+00 0 0 0
2360 1 1.4081856804698070e+00 1.4905586674881564e+00 4.0241180574122248e+00 1 1 0
1764 1 1.6340279554562931e+00 3.2487949449647182e+00 5.8597988381610477e-01 1 1 0
994 1 1.3866411523643483e+00 3.9897347304654107e+00 2.9679527502581293e+00 0 0 0
870 1 1.8507474462675142e+00 2.1613534440815361e+00 4.4885483195956793e-01 1 1 1
1029 1 2.1513232231836175e+00 1.1645422701280912e+00 4.8455526337298321e-01 0 0 0
3703 2 1.4130179038674779e+00 3.6900624096571311e+00 1.3329714475925409e+00 0 0 0
2677 1 6.0262912295172226e+00 2.5955293500684817e-01 1.5387901447555328e+00 0 0 1
1357 1 1.4395514321470442e+00 1.5153679484654730e+00 1.2857972293823525e+00 1 1 1
1081 1 1.1898679234062290e+00 3.2651926893304402e+00 3.7439257204257297e+00 0 0 1
814 1 1.5497453996994439e+00 2.4751957027973681e+00 4.1795758734157236e+00 1 1 0
3533 2 1.5917453311368062e+00 2.6541923276169759e+00 2.3932558534310564e+00 1 1 0
722 1 2.4698575057782231e+00 1.7276783217921579e+00 1.3496189721204805e+00 1 1 0
2278 1 6.7392938102045976e+00 1.1444575546790570e+00 2.8409759825692227e-01 1 1 1
669 1 1.8072680821352265e+00 4.4499322313128529e+00 1.6649322132716067e+00 0 0 1
1147 1 1.9643853143593177e+00 7.9921356583736025e-01 2.0095486214092357e+00 0 0 1
1462 1 1.7772157670159354e+00 2.6416667115001315e+00 1.5220342925593646e+00 0 0 0
2661 1 8.2566381762880479e+00 3.7227952935025264e+00 3.6499576287881510e+00 0 0 0
3757 2 2.8002267720419485e+00 2.0600685332151998e+00 5.6762289899860230e-01 0 0 1
1194 1 1.8884256092956824e+00 1.8251658421224231e+00 2.2409327647961201e+00 1 1 0
580 1 2.1940523221215722e+00 9.2754119949911240e-01 3.6176995253489843e+00 0 0 0
1271 1 1.7495030226646955e+00 3.4690139933091317e+00 2.0952620320046109e+00 1 1 0
1001 1 3.5805971383844870e+00 3.3303286594529027e+00 1.9515884378090578e-01 0 0 0
567 1 2.3589001491923205e+00 3.6109402725572854e+00 1.2907374251861732e+00 0 0 0
1511 1 2.0163441433265015e+00 3.1176561198553103e+00 3.1603310540529348e+00 0 0 0
631 1 -6.8053801013940735e-03 1.5517917536844643e+00 2.1843363935930680e+00 0 0 0
1441 1 6.4067032148443941e+00 2.9798279885932928e+00 1.2725540624703510e-01 0 0 0
30 1 1.6979888849260292e+00 4.1489992502728086e+00 4.0748469124544151e+00 0 0 0
1071 1 2.3309236376791134e+00 1.7896149420901839e+00 4.4825794212123382e+00 0 0 -1
2197 1 2.5524654595562444e+00 2.7607726047464487e+00 2.3731389767719953e+00 1 1 0
3865 2 2.4583903618626870e+00 4.4610721462763694e+00 9.3537827372119919e-01 0 0 0
1785 1 2.6164882306086272e+00 1.1962953007138277e+00 2.6900967072304489e+00 1 1 0
3775 2 3.4260159419675711e+00 1.8031112405484868e+00 1.3245161932657583e+00 1 1 0
860 1 2.3046966083234208e+00 3.1970892857196245e+00 4.1720785325888974e+00 1 1 1
1351 1 3.2917548606308484e+00 1.2303373491623764e+00 7.1892010767848813e-01 1 1 0
1561 1 2.5650338442194416e+00 3.9376849592308649e+00 2.5049369943767106e+00 0 0 0
2787 1 9.4282730882965247e+00 1.6946298232629105e+00 1.4523651758746441e+00 1 1 0
1617 1 2.6219671249752663e+00 2.8457945888296052e+00 2.2339685606418247e-01 0 0 1
566 1 2.8607570964722093e+00 2.6778735460890117e+00 1.1954983100114596e+00 0 0 0
1428 1 2.9094312411619772e+00 4.6069320416250337e+00 1.7813881102856781e+00 0 0 0
534 1 2.6132290163109997e+00 4.0062932578016479e+00 3.4721901188295452e+00 0 0 0
1573 1 2.1882437947601696e+00 2.0428371920738937e+00 3.4003093732791676e+00 0 0 0
1855 1 4.2406294546999117e+00 8.5327948348753835e-01 5.4098296081679631e-01 1 1 1
1684 1 7.2050334004791319e+00 4.1705405039128891e+00 3.3447095930152577e+00 0 0 0
1721 1 3.1807169719977741e+00 2.9497406434230702e+00 3.2212744524833985e+00 1 1 0
3053 1 7.1648444113518766e+00 8.4136897782411443e-02 1.5590851940103614e+00 0 0 1
767 1 3.6918797764186917e+00 2.3532338987023755e+00 6.9363430068213050e-01 1 1 0
1506 1 3.2580950346273712e+00 3.5477502301976260e+00 1.8219971873009912e+00 0 0 0
1950 1 3.0729766986746854e+00 1.5276855322836858e+00 3.6881787043838705e+00 0 0 0
537 1 3.0448152194073970e+00 2.4660997413847321e+00 4.0942643744173797e+00 0 0 0
1897 1 3.3649811215566126e+00 1.1885532673094092e+00 1.8947266949857986e+00 1 1 1
991 1 3.2554096128514916e+00 2.0003468225436087e+00 2.5254255370924517e+00 0 0 0
3946 2 3.4799034010547101e+00 2.8606197187544091e+00 2.3818478711969706e+00 1 1 0
1455 1 3.1748734068974493e+00 4.4925142310090199e-01 3.5079266263164746e+00 0 0 0
3468 2 3.6078880394660344e+00 3.1805127978442882e+00 1.1110887724169789e+00 -1 0 1
4024 2 7.7882419798073617e+00 1.7879454398757983e+00 9.1864777013664145e-01 0 0 2
2823 1 8.1423919322072145e+00 4.7119646288827548e+00 2.9870696336342086e+00 1 1 0
1682 1 3.5938511307726935e+00 3.8997803314803265e+00 3.8074167868350965e+00 0 0 0
1535 1 3.6764007378241450e+00 3.8585882122402073e+00 2.7041695432017523e+00 0 0 0
3503 2 3.5859711454419707e+00 2.1792957161541628e+00 3.4495159059624401e+00 -1 0 2
2101 1 3.7581080161059983e+00 2.4648930057546736e+00 1.6934700846445014e+00 0 0 1
1437 1 4.2532354139076798e+00 3.4560477701571388e+00 1.9876120905146140e+00 0 0 0
1103 1 4.6306768243723884e+00 1.0729346288044472e+00 4.0779819441588465e+00 0 0 0
3764 2 4.6187337034245237e+00 2.1211059459714114e+00 7.0595425705839532e-01 1 1 -1
1858 1 4.5412931578689282e+00 1.8559535885499736e+00 3.3669630590618365e+00 1 1 0
889 1 3.9826428739252235e+00 1.9249992905071687e+00 4.2534964129621509e+00 1 1 0
3501 2 8.3235684858755707e+00 3.1040992588155305e+00 2.9719599009372430e+00 -1 0 0
2076 1 4.1905755893142604e+00 2.6419955169031697e+00 2.8085875623154082e+00 0 0 1
550 1 3.7479028676084047e-01 4.3090605752764688e+00 2.8831602454935221e+00 0 0 0
2946 1 4.2944692014529817e+00 1.6175369017549246e+00 1.2657556143095479e+00 0 0 0
3676 2 4.6876848435536473e+00 2.6486150728325613e+00 1.9825413353703227e+00 1 1 1
3407 1 8.3372399656476084e+00 4.2068069389721879e-01 4.0816174697033043e+00 1 1 0
1564 1 4.0818875075573731e+00 4.6147773781334491e+00 2.9149184980940140e-01 0 0 1
3097 1 4.3533592240671366e+00 8.2691569355963634e-01 1.9859423195611008e+00 0 0 1
1519 1 4.4272107867178052e+00 1.7678680376633273e+00 2.2946343685366526e+00 0 0 0
952 1 4.5104453884125455e+00 2.9053511258693430e+00 1.1494090848587608e+00 0 0 0
1538 1 5.4825352760510171e+00 1.4239180590650344e+00 3.4645321106261675e+00 0 0 0
503 1 4.2136373889051422e+00 4.0446632070134081e+00 1.2082720604344759e+00 0 0 0
2176 1 3.7430049138380146e+00 1.2202531170220261e+00 3.0007605260740720e+00 1 1 0
2444 1 7.1674886309601620e+00 2.0939135132473270e+00 4.2010212843919176e-01 0 0 0
2421 1 4.5559436273389569e+00 3.6074443295281537e+00 3.4085545137109650e+00 0 0 0
4281 2 7.4337660062428474e+00 3.0342602638272469e+00 1.4134627265176658e-01 1 1 0
1425 1 4.0726611242554345e+00 2.9222394000830594e+00 3.9901728860374850e+00 1 1 0
2063 1 6.3092359122821460e+00 4.4514978270266692e+00 3.0845608836051923e+00 0 0 0
1622 1 4.9612664149377448e+00 4.3676895213745928e+00 3.9405633617875631e+00 0 0 0
2414 1 3.6865545882625286e+00 2.3997120810986228e-01 1.2581859684255337e+00 1 1 0
1072 1 5.0664840509815328e+00 4.3342480763501339e+00 2.7966159386815415e+00 0 0 0
1160 1 5.1971670731885773e+00 2.0218224697460156e+00 1.5522144722066864e+00 0 0 0
4041 2 3.6811366276429287e+00 9.7731354132002679e-01 3.9894089872416831e+00 1 1 0
2660 1 9.0802853260729144e+00 2.7335064302131871e+00 2.3144043900022426e-01 0 0 0
906 1 5.0551319691201959e+00 3.2271340298510958e+00 2.5830086668520429e+00 1 1 0
2098 1 3.2295754799875236e+00 4.0316183299027433e+00 8.0093043456148072e-01 0 0 1
2250 1 5.0959939273302064e+00 2.7742146928308351e+00 3.6027677062836174e+00 1 1 0
2208 1 7.3655620620752451e+00 1.1864064160735434e-01 2.6076421936725285e+00 1 1 0
2544 1 7.1325614421390933e+00 4.6522743897680714e+00 4.6351377373798401e+00 0 0 0
314 1 9.3881257915737084e+00 6.7203506679998670e-01 6.6499309072226387e-01 0 1 0
2108 1 3.3849254590522069e+00 3.3196267603660279e+00 4.6048957466564833e+00 0 0 0
1711 1 4.9540910530878746e+00 3.6503401940027360e+00 4.6102243638336604e-01 1 1 0
975 1 5.1255324644705409e+00 1.9783629420350242e+00 4.2922172635814180e+00 0 0 0
2515 1 8.1524517978975233e+00 3.3683148455971779e+00 8.7669093518802288e-01 0 0 0
2689 1 5.4676190208344639e+00 2.2829282629435661e+00 2.6489909920264219e+00 0 0 0
1470 1 5.1773270260561590e+00 3.6367004475837219e+00 1.5891495162634786e+00 0 0 0
2513 1 5.1389845835859393e+00 1.4514545853871144e+00 3.8842220578516445e-01 0 0 0
2568 1 5.1439492013042933e+00 8.7856013155869128e-01 1.3015464396826526e+00 0 0 0
1544 1 5.4972340610255364e+00 2.4824536707369247e+00 6.6508641689085790e-01 0 0 0
1678 1 5.5784834893158024e+00 3.7471822701031621e+00 3.4440108162222565e+00 0 0 1
1485 1 5.3617943103566885e+00 1.1566298054879285e+00 2.4101952309046615e+00 0 0 0
2047 1 8.5595636114692208e+00 2.6634538546892519e+00 3.7485438725274927e+00 0 0 0
3771 2 5.0831736898147000e+00 3.5377110072799960e+00 4.0808337543121800e+00 1 1 -1
1471 1 5.6169658179609376e+00 6.8920087376213579e-01 4.4031628550692741e+00 0 0 0
56 1 1.1836591837533067e-01 1.5042447670423096e+00 1.5795611987328345e-01 0 0 0
1965 1 5.7932923817318995e+00 2.8427711413890577e+00 1.8583268261929617e+00 0 0 0
3460 2 5.7861020666904306e+00 2.9863478456820194e+00 3.0964130269032601e+00 -1 0 0
1489 1 6.0062091263174402e+00 2.2924522726179410e+00 3.6313316832722835e+00 0 0 0
2132 1 5.1968007003196739e+00 4.1257279593079210e-01 3.3011343018013313e+00 0 0 0
1667 1 6.1638678143659682e+00 1.8915524597776203e+00 1.9462794644780794e+00 0 0 1
2051 1 8.6982155694818299e+00 1.3877351429127533e+00 4.3116246958154942e+00 0 0 0
2397 1 8.5814759043915618e+00 1.4066108612610619e+00 9.3511663147774204e-01 1 1 1
1979 1 5.9496559781077512e+00 3.6978045301863554e+00 2.4753637285594801e+00 0 0 0
1671 1 5.5324992482894189e+00 4.3932225206564883e+00 8.4262785383522032e-01 0 0 1
2451 1 9.3510006482274814e+00 3.3878218535430134e+00 3.7233779525692023e+00 0 0 0
744 1 1.7283808571808814e+00 4.7108800843499896e+00 6.6618635881172628e-01 1 1 0
2145 1 5.8621464937900027e+00 3.2017782593830817e+00 4.2591407419548677e+00 0 0 0
1991 1 6.0854509395146090e+00 4.9289814303522683e-01 2.6965358176061236e+00 0 0 0
2854 1 6.4179075791453561e+00 1.4378430770066279e+00 4.1501733566722550e+00 1 1 0
2646 1 6.3088286636122684e+00 1.6659144490672742e+00 2.9079948288991333e+00 0 0 1
2468 1 5.9762279661519626e+00 3.4739596312339520e+00 8.6471358286126732e-01 0 0 0
2737 1 7.0234457166604072e+00 8.4898979513629924e-01 3.1760430207588448e+00 1 1 0
2538 1 6.5249098332612778e+00 2.5357814090604029e+00 1.0895558720237759e+00 0 0 0
1117 1 -8.5739856261115494e-02 3.9637012249380237e+00 6.1793515490449369e-02 0 0 1
2850 1 6.4694814312591022e+00 2.7125516872744968e+00 2.6857206811687280e+00 1 1 0
1168 1 6.6549759077318180e+00 9.2850165152190056e-01 1.9434138211736267e+00 0 0 1
1689 1 5.9902236260211694e+00 2.2545465780710217e+00 4.7913480414286909e+00 0 0 0
4242 2 6.8865272188342228e+00 2.4123845433281104e+00 1.9263626738305604e+00 0 0 1
2159 1 6.2025878835679622e+00 4.2248338225650794e+00 4.1387634485035818e+00 0 0 0
2056 1 6.1097492298607854e+00 1.5838822371827475e+00 9.4372873389464684e-01 0 0 1
4056 2 7.1347849096796869e+00 3.4411451745671435e+00 2.7983991968696231e+00 0 0 0
4267 2 1.0902029943575802e+00 4.7469756677022801e+00 3.4662333137087202e+00 1 0 1
2386 1 7.2499075560152164e+00 1.6660847168104125e+00 2.4057725046056411e+00 1 1 1
964 1 6.1829961715153070e+00 4.2026270629722662e+00 1.6025690541009863e+00 0 0 0
1493 1 7.2277832098153025e+00 1.9740434011240471e+00 3.5625514700213663e+00 0 0 0
1988 1 6.7987872702865069e+00 3.3193892161313205e+00 1.8140739107272656e+00 0 0 0
2858 1 9.0589706172959303e+00 1.8224154739761065e+00 3.3571234278698041e+00 1 1 0
968 1 4.4222553444040885e-03 2.6199738679237132e+00 9.2216884266195498e-01 0 0 1
2631 1 6.5261603588068855e+00 3.3871501448234516e+00 3.4980740305654558e+00 0 0 0
1818 1 1.1800919933374070e+00 2.9622917905789353e-01 2.6945903102468414e+00 1 1 1
1198 1 9.0552129005610160e-02 4.5596741574785122e+00 8.1188928554188211e-01 1 1 0
1484 1 2.5824950409563860e+00 9.7699030067910336e-02 2.5308089345837388e+00 0 0 0
1076 1 7.0950109936426893e+00 3.4607557269899432e+00 7.6075036575805033e-01 0 0 0
1090 1 1.5113728898480278e-01 6.6936930697187058e-01 3.9455147836002502e+00 0 0 0
2081 1 7.3778722532121792e+00 3.6508064353301268e+00 4.2939580816383867e+00 0 0 0
2120 1 6.8978523491110240e+00 2.6663729151099353e+00 4.2071996611353883e+00 0 0 0
3331 1 7.8964742799142309e+00 1.3964687395850905e+00 1.9358673002401357e-02 1 1 1
1696 1 4.0534389935094159e+00 4.7164413334342461e+00 4.2691143591325451e+00 0 0 0
324 1 9.1096033246034249e+00 1.6684162247443095e+00 1.0465468225546627e-01 0 1 0
2642 1 7.5311740471364104e+00 2.8133796252443082e+00 2.4158862011127367e+00 0 0 0
1500 1 8.2197660743266940e+00 2.1858326211005545e+00 2.8399519115707976e+00 0 0 0
1975 1 7.0758870281655639e+00 1.6564325589293358e+00 1.3394941147017079e+00 0 0 0
1983 1 7.5407236476455051e+00 2.9523422391343406e+00 3.4138643914012956e+00 0 0 0
1174 1 7.5132084472656704e+00 8.6376246083526631e-01 9.0297891764585014e-01 0 0 1
2838 1 5.8681932213943737e+00 6.8744155839302579e-01 5.0692206273982920e-01 1 1 1
4124 2 5.8741850395470552e+00 1.1345556754628545e+00 1.6781627155279009e+00 0 0 1
2500 1 7.9068122620071319e+00 2.1818128564640453e+00 4.3690502956248842e+00 0 0 0
2055 1 7.5161668111721704e+00 2.5974240701139171e+00 1.3688413932784811e+00 0 0 1
3627 2 9.7353343736486586e-01 4.6582549485770359e+00 1.2385501388502889e+00 0 0 1
2479 1 9.2325131008592098e+00 4.5468244567715503e+00 1.0728929409159189e+00 0 0 0
3768 2 5.9151174566926601e-01 3.1908610350383331e+00 5.2836647239546142e-01 1 1 0
2133 1 8.6928051913738500e+00 1.3374452484187203e+00 2.4738751219607380e+00 0 0 1
1439 1 7.0535900109349869e+00 4.2637867429029308e+00 2.2277273735617373e+00 0 0 0
4190 2 5.2257400064260953e+00 2.2171578680828027e-01 7.4107310802735615e-01 1 1 1
2257 1 8.7612122304216342e+00 2.3806964371709562e+00 1.1272962688585673e+00 1 1 0
3730 2 7.7258660240402026e+00 3.4539107397616138e+00 1.6688857761570521e+00 0 0 -1
1594 1 7.5084720605932223e+00 1.1850121820148360e+00 4.1829745090534205e+00 0 0 0
2530 1 8.0471528478523169e+00 1.0278547146748558e+00 3.2358522345140628e+00 0 0 0
3119 1 9.3986091725095537e+00 5.7751099301222730e-01 4.3038927676763690e+00 0 0 0
1472 1 5.3647659339592044e+00 4.7364941584054563e+00 1.9186778069923724e+00 0 0 0
4263 2 1.8716273387208051e+00 4.4582305314017088e+00 2.5432910282936629e+00 1 0 0
4147 2 7.9428394240561335e+00 4.6098746968157718e+00 2.1365380409921464e+00 0 0 0
2282 1 7.8607786011895504e+00 8.9972162938138167e-01 1.9206598079565482e+00 1 1 0
2275 1 7.5105389406912142e+00 4.2684987056085912e+00 1.2802363536000656e+00 1 1 0
1098 1 4.5100743821059579e+00 2.8366104664273291e+00 8.8230145301068111e-02 0 0 1
3601 2 8.4482400101802089e+00 4.2231420880702935e+00 8.5988787030881964e-01 -1 0 1
2358 1 8.1258661491765949e+00 2.3646012456829122e+00 3.2924012796377095e-01 1 1 0
1066 1 6.6709115107841397e+00 4.4495806279689525e+00 6.3468286933219342e-01 0 0 0
3725 2 8.3824617679034201e+00 5.0087046983292494e-01 2.5114383114719119e+00 0 0 1
2436 1 8.9437050553203488e+00 4.8085570020094277e+00 2.2651087100617318e+00 0 0 0
1641 1 6.8080567311818667e+00 1.1959077581861535e-01 4.6472207725391063e-01 0 0 1
1295 1 1.6317826234639006e+00 4.4122722031576783e-01 1.0294138225619782e+00 1 1 0
3979 2 8.1412944032905923e+00 1.7794740956351798e+00 3.6621341755171315e+00 0 0 0
2949 1 8.1368889300080074e+00 1.9046357273847410e+00 1.7874525060313788e+00 0 0 0
1051 1 2.3805079531762519e+00 3.9862151891299025e+00 1.9774147408565754e-01 0 0 0
3063 1 7.8575367158681955e+00 3.7698374030759840e+00 2.5367527917580195e+00 0 0 0
2428 1 7.7658860429693144e+00 4.1599444453344576e+00 2.3270189619740456e-01 1 1 1
1899 1 3.7155504479097980e+00 2.1213547424995710e-01 4.4838341776068127e+00 1 1 0
1458 1 2.3696230364821105e+00 1.0944034858408741e-01 3.5672295575242119e-01 0 0 0
4227 2 9.1779723467506198e+00 3.5192212823668307e+00 1.9516118936296227e+00 0 0 0
4177 2 6.3740326655915835e-01 1.3196861763870811e+00 4.4228060996906082e+00 1 1 0
4081 2 1.5265020637860687e+00 3.9681635472635821e+00 1.5485435352507715e-01 0 0 0
1242 1 1.1572330299984266e+00 1.3448226908751313e+00 2.4137466415622652e-01 1 1 0
4133 2 5.5367727637591626e+00 4.7937766849666614e+00 4.4231489743206041e+00 0 0 0
3878 2 1.5867811054882588e+00 5.5556386590099816e-01 1.1094427695054636e-01 0 0 1
2155 1 3.5234640717208463e+00 1.7105748651572544e-01 2.0113389983714822e-01 0 0 0
1166 1 -4.3627527562464213e-02 3.6233037550661522e+00 1.2554758046114531e+00 0 0 1
3756 2 2.8964869647191152e+00 7.7201131757477914e-01 1.1060515741794021e-01 0 0 1
1550 1 4.8823158403723008e+00 1.4838527298602954e-03 4.2487024170341652e+00 0 0 0
3404 1 9.1399821501926546e+00 5.4104284997989445e-03 2.5060198373332185e+00 1 1 0
3030 1 8.6324086567793117e+00 4.7865674293919103e+00 2.0850001009697797e-01 0 0 0
3686 2 4.6995356386417261e-02 2.3493237478394997e+00 1.7744489995488424e+00 1 1 0
1870 1 4.1897069518695007e+00 1.7718774192973676e+00 3.7171133290543598e-02 1 1 1
1128 1 8.4521614216258267e-01 4.9550212925789427e-01 4.7564314461386967e+00 0 0 1
3539 2 9.5141903735141717e+00 2.1740773932974387e+00 6.8211711753995607e-01 0 1 1
1402 1 6.8787534429550035e-01 3.1328721893767092e-01 8.8270645103410809e-03 1 1 1
3328 1 8.8174286593046585e+00 1.5169425382883435e+00 6.9166216389163129e+00 1 1 0
3868 2 1.0498270731329105e+00 1.9244198645519586e+00 9.1969895402883672e+00 0 0 -1
2335 1 4.2565982965021290e+00 2.7311266297130488e-01 8.8443165890219841e+00 1 1 0
2604 1 8.4764244580024570e+00 1.7095604205353805e+00 8.0031357074487772e+00 0 0 0
2307 1 8.6886254998841963e+00 7.4693669862767009e-01 9.5087453829196438e+00 1 1 0
2669 1 8.7280485596539652e+00 5.0252762433277043e-01 5.1862762954335215e+00 0 0 0
3752 2 -2.6483914620795794e-02 2.0138293926704618e+00 6.0129429949594950e+00 0 0 0
3875 2 8.9793322371935762e+00 2.2704064591669137e+00 7.4847317860705420e+00 0 0 0
3615 2 8.9633792820014904e+00 4.0208243647193891e+00 5.4259919934225724e+00 0 0 0
2822 1 8.8467295448049210e+00 3.1911383409435894e+00 7.5185338577142140e+00 1 1 -1
3174 1 8.7051305997565844e+00 3.4975633331956613e+00 8.5737302216324789e+00 0 0 0
2130 1 8.1365190495037716e+00 3.2087824937561336e+00 9.3901608783816783e+00 0 0 0
3838 2 2.4372140176739099e+00 4.3314018604770261e+00 5.4137000316202810e+00 0 0 0
2403 1 9.1008257715632137e+00 2.5796290851409514e+00 8.3474028390562687e+00 1 1 0
4304 2 9.5363491566834604e+00 1.8166075492890863e+00 5.9917423524265008e+00 1 1 0
3741 2 9.6100247090904336e+00 9.7527655328463081e-01 9.4683733764260545e+00 0 0 0
2126 1 7.0667540786069667e+00 1.7984401692782763e+00 4.8782631918374353e+00 0 0 0
4006 2 7.3413882927743970e+00 2.9889252415538721e+00 4.9244486418482252e+00 0 0 0
2543 1 7.9235271955266793e+00 1.4615599020111474e+00 6.3460701864327556e+00 0 0 0
1954 1 9.1253168181178417e+00 4.4227653790328940e+00 8.9284623319335150e+00 0 0 -1
613 1 4.6409857142693154e+00 6.3247981071417225e-01 5.0397662550352100e+00 0 0 0
1212 1 5.8485551619412632e+00 1.1336209111260511e+00 9.2094751077646126e+00 1 1 -1
3611 2 4.8362877531459625e-01 9.6254515756393733e-01 5.4050321911868737e+00 0 0 1
517 1 9.4750461870833069e-01 4.6935206442022706e+00 9.5760175195683885e+00 0 0 0
569 1 2.9881402601793722e-01 2.8554892498324222e+00 7.7592069729374042e+00 0 0 0
2553 1 8.1856953109979358e+00 2.6404611836311492e-01 7.7021936889151785e+00 0 0 0
2757 1 5.2977151272058229e+00 3.5691935471010144e-01 8.6025904849661536e+00 1 1 -1
2128 1 6.6718159982223222e+00 3.6172960157594014e+00 5.0938394935190869e+00 0 0 0
217 1 2.2643249525428050e-01 2.7746955265032158e-01 5.8894372076328967e+00 0 0 0
3992 2 8.8660987677599152e+00 3.5928182542973324e+00 6.5556914082643685e+00 0 0 -1
1674 1 5.5361969133073883e+00 7.1228768440641951e-02 6.5020899910478303e+00 0 0 0
2305 1 9.0638238987993098e+00 2.6937183949469903e+00 6.6229796421901579e+00 1 1 0
1318 1 5.0991016282676760e-01 1.2016259659599426e+00 8.9186487634266705e+00 1 1 0
1114 1 2.2232631473386391e-01 1.7238109615605512e+00 5.2058009532680014e+00 0 0 0
70 1 -3.4238782094879426e-02 2.8999199873202604e+00 9.6052530107322323e+00 0 0 -1
1591 1 2.5110997018186565e-01 2.1873920997499936e+00 6.8303965729581915e+00 0 0 0
1155 1 -9.0223169550827931e-03 4.6398185303767754e+00 6.8596089088863117e+00 0 0 0
108 1 7.8807866270975496e-02 3.9106787784132857e+00 7.7834772117130671e+00 0 0 -1
621 1 7.9944174978248117e-01 5.4702900835000479e-01 6.8073480570051768e+00 0 0 0
1683 1 1.2014297307678079e+00 1.4193253899668343e+00 5.0632209232530698e+00 0 0 0
1187 1 9.4114547182353903e-01 2.6329253387720457e+00 6.2654733909717955e+00 0 0 0
227 1 7.7556715546887034e-02 3.3927435319212926e+00 8.7209659746542290e+00 0 0 0
1093 1 4.4820044240414553e-02 3.8430094590558044e+00 5.8550005309895736e+00 0 0 0
973 1 3.5589291317892685e-01 2.2956392415184350e+00 8.7795740285681259e+00 0 0 -1
3755 2 8.9239072547766929e-01 3.5566132699088100e+00 7.7384361496787575e+00 0 0 0
2456 1 7.0801426626468356e+00 8.6716290295148335e-01 8.9581408130305835e+00 0 0 -1
1856 1 3.0241591021947087e+00 8.4361349810024341e-02 8.9261314632617008e+00 1 1 0
704 1 9.9608539523292061e-01 1.4958253057440081e+00 7.2378071642554422e+00 0 0 0
1606 1 8.6292644226397031e-01 1.5864178689011097e+00 6.0800162410776144e+00 0 0 0
1146 1 1.0476666013960731e+00 3.1171853670451162e+00 8.4399104818064146e+00 0 0 0
1714 1 2.1210018708454763e+00 1.7238047052461802e-02 8.3141752188727036e+00 1 1 -1
1083 1 1.4643281152303984e+00 9.7420997557455336e-01 8.4910951336182414e+00 0 0 0
127 1 4.3593781990128588e-01 3.4126346745855560e+00 6.8646000141661547e+00 0 0 0
1569 1 6.1442200467121955e-01 8.8653949344919292e-01 7.9321359426830993e+00 0 0 0
1177 1 1.9374318469498699e+00 2.9983380919651919e+00 5.9439472614797069e+00 0 0 0
1359 1 2.8285077480588576e+00 1.6390442936678000e+00 9.5262301882052576e+00 1 1 0
1865 1 1.7320477935286125e+00 6.6184655160852301e-01 7.5281594565035626e+00 1 1 0
4241 2 2.0533557864675380e+00 1.3986224707207195e+00 5.2006682520173406e+00 1 0 -1
538 1 1.2427692564558754e+00 5.9448951985613485e-01 5.7527112776833143e+00 0 0 -1
2088 1 1.0745804626327824e+00 3.5832158077639105e+00 5.8913187931431148e+00 0 0 0
547 1 1.9197133324784941e+00 1.1945046836080102e+00 6.6946766918864880e+00 0 0 0
186 1 1.0530401782145804e+00 4.1600221008947988e+00 8.4168861818079765e+00 0 0 0
2116 1 8.5921034586862106e+00 3.1377735432518405e+00 5.6780596879856509e+00 0 0 0
1183 1 1.8740893174375552e+00 3.6449138205294518e+00 7.9039404433733083e+00 0 0 0
899 1 1.2447936157177795e+00 2.6028542786643221e+00 7.3207670255304622e+00 1 1 0
2470 1 9.1148869218205260e+00 1.3970721354455109e+00 8.7277446713117453e+00 0 0 0
2135 1 9.1101523213980695e-01 4.3588568462094157e+00 7.2408945311382320e+00 0 0 0
1853 1 1.9498500107945924e+00 1.9006228643552054e+00 5.8878510254682066e+00 1 1 1
1630 1 2.0326543376684763e+00 1.7810480715778678e+00 7.5156119417449361e+00 0 0 0
3123 1 1.4746024865427463e+00 3.5468788811634226e+00 6.9384223648264767e+00 1 0 0
548 1 1.8327601617289850e+00 3.4964682573610952e+00 5.0315591575696290e+00 0 0 0
813 1 2.2565521590477955e+00 7.4094302353037933e-01 9.1646403436102855e+00 1 1 -1
3737 2 3.3354253218627772e-01 1.9918666890959087e+00 7.7117635690845416e+00 0 0 0
4101 2 2.0442125949093848e+00 2.9767799572247839e+00 7.3872109147178273e+00 0 0 -1
954 1 2.2614803176833909e+00 2.4612528439629537e+00 6.7629164510363626e+00 0 0 -1
2548 1 9.2783605494098733e+00 4.1259155404816967e+00 7.9179896922092619e+00 0 0 -1
3016 1 2.0054338908290932e+00 4.2139455916092254e+00 6.1505394252460279e+00 1 0 0
2057 1 2.3047048069384304e+00 7.8128313433901242e-01 5.7343994386644459e+00 0 0 0
3796 2 3.5308760700352360e+00 3.3463945122794851e+00 8.9448994752133206e+00 1 1 -1
1016 1 1.8043201073834660e+00 3.8027874281110847e+00 8.9634123494986291e+00 0 0 -1
1836 1 3.0527270125661015e+00 1.5606635166684411e+00 7.4166113502248301e+00 1 1 0
1665 1 2.8945161106931363e+00 1.5629620395942754e+00 6.4018236339077523e+00 0 0 0
1626 1 2.5177384969178713e+00 9.7355057583437332e-01 8.1616336058157319e+00 0 0 0
1647 1 2.8913055886962802e+00 1.5687214386487589e+00 5.3625974884239422e+00 0 0 0
1078 1 2.8536715075342887e+00 3.3011341474729345e+00 7.6466440452621267e+00 0 0 0
1301 1 1.8532753042651213e+00 1.4352963678342709e-01 6.5874362619222149e+00 1 1 -1
3577 2 1.4562891066368149e+00 2.0510306463659354e+00 6.6809553578135032e+00 0 0 -1
3978 2 2.6511028779305144e+00 2.3603583251920113e+00 7.6869152547797963e+00 1 1 0
1514 1 2.7091610463772176e+00 3.3535987710579365e+00 8.7835950690229829e+00 0 0 -1
1549 1 5.9026228531970286e+00 5.7923256448530513e-01 5.4759321718618272e+00 0 0 0