LAMMPS data file via write_data, version 12 Dec 2018, timestep = 446160

4320 atoms
2 atom types

0.0000000000000000e+00 1.9309999999999999e+01 xlo xhi
0.0000000000000000e+00 1.9309999999999999e+01 ylo yhi
0.0000000000000000e+00 9.6549999999999994e+00 zlo zhi
-6.2564400000000013e+00 0.0000000000000000e+00 0.0000000000000000e+00 xy xz yz

Masses

1 1
2 1

Atoms # atomic

2098 1 3.8819136714330806e+00 3.8950011248383549e+00 1.7482508323235516e-01 0 0 1
2159 1 7.4266187037572227e+00 4.1249221933269862e+00 3.9202202983762837e+00 0 0 0
976 1 3.3775089866409553e+00 4.0127489849011155e-01 4.5204770584860405e+00 0 0 0
818 1 1.8242592930952511e-02 5.1431282452547022e-01 3.5396655399351901e-01 1 1 0
1621 1 4.8207183490407495e+00 4.6190544944781617e+00 3.2729631854767880e+00 0 0 0
1870 1 5.9864206130465547e+00 1.5700140349524827e+00 4.8765265814656183e-01 1 1 1
4041 2 5.7086294067026566e+00 5.5550936545549245e-01 4.0079621132290697e+00 1 1 0
1493 1 8.1664295611413262e+00 1.7245352564026224e+00 4.0348503519627714e+00 0 0 0
1544 1 6.6376403950116778e+00 2.5583786326710882e+00 7.0372562507808156e-01 0 0 0
558 1 -6.3407617838525676e-01 2.1268859658607373e+00 1.7844948758277024e+00 0 0 0
3500 2 8.5484828427622972e+00 5.1883567900954697e-01 4.2721947018043158e+00 0 0 1
4116 2 1.6322386398885214e+00 4.1621309163522996e-01 1.4644991940516117e+00 1 0 -1
3688 2 1.6791932701773526e-01 3.8338355314465660e+00 4.6675489608827849e+00 1 1 0
1168 1 9.2985268940977033e+00 4.4624192929823070e-01 1.8315886068635201e+00 0 0 1
1127 1 1.0141001348853920e+00 3.0735890326312670e-01 6.6982740088685422e-01 0 0 1
1554 1 1.5967087697560021e+00 1.1592669413836256e+00 7.1456744208018330e-01 0 0 1
4042 2 7.8548252866311707e-01 1.4995717572253013e+00 4.0994557225786501e+00 1 1 0
95 1 2.5653271176795074e+00 5.7822338996621359e-01 1.4326702993967131e+00 0 0 0
1983 1 8.7952226202070474e+00 2.5494370476656640e+00 3.5672199219417791e+00 0 0 0
717 1 -4.5221646834120499e-01 3.7428237183335309e+00 8.0404791175521995e-01 0 0 1
870 1 2.4570645875337354e+00 1.7030591036891360e+00 1.1769455981480395e+00 1 1 1
1798 1 2.8063367892614028e+00 9.7068114863076760e-01 4.7395843474580268e-01 1 1 0
2689 1 6.7694875945483970e+00 2.4218091884643318e+00 2.8279828035142192e+00 0 0 0
906 1 5.9852220662880189e+00 2.8918984282619165e+00 2.2863084203617663e+00 1 1 0
1615 1 3.9005552362273646e+00 1.4983673892175053e+00 8.9168761497260396e-01 0 0 1
3750 2 -1.7397772506160847e-01 1.5847964983652685e+00 1.2805171692025421e+00 0 0 1
1357 1 3.7246059235010671e+00 5.6364721437071519e-01 1.8458101582561786e+00 1 1 1
767 1 4.9545573857427021e+00 1.4669106881119152e+00 9.8476442023928257e-01 1 1 0
586 1 -6.5603784459957515e-02 3.6748862953262953e+00 2.4725962057837418e+00 0 0 0
3468 2 4.7619781782372419e+00 2.5135312965322019e+00 8.8836926961065299e-01 -1 0 1
2132 1 7.1508216717296866e+00 1.4481417794234237e+00 3.8344577795763795e+00 0 0 0
1491 1 5.6575942482321806e-01 5.7080329182903355e-01 4.7338253740646374e+00 0 0 -1
1671 1 7.0189702908264371e+00 4.3011357395192338e+00 8.7152801841766903e-01 0 0 1
3771 2 6.5869097623211967e+00 3.8494764431816302e+00 3.7772506169143516e+00 1 1 -1
3799 2 -1.3129532336118672e+00 4.0847003832637530e+00 5.0704692877173618e-01 1 1 0
4063 2 6.7246604093043354e+00 9.7573954928332807e-01 3.1268792940786647e+00 1 1 1
2278 1 9.0708516222176847e+00 4.5703497454840064e-01 5.6137479170401772e-01 1 1 1
1165 1 1.0617998704389553e-01 2.0991767852637091e+00 3.7607446021890962e+00 0 0 0
2201 1 5.8973694453136147e+00 4.2866658411570491e+00 1.0432862526786397e+00 1 1 0
1359 1 4.6208812890771398e+00 8.3690599331338933e-01 2.4376226028020570e-01 1 1 1
1441 1 7.4973478138978455e+00 2.9431124963614868e+00 1.7438635409517830e-01 0 0 0
537 1 4.8083352238785739e+00 2.9208352879157031e+00 4.4728781048809401e+00 0 0 0
34 1 5.8909088297221701e-01 2.6366648550411385e+00 5.8173210938576703e-01 0 0 0
4208 2 -9.5633282889522486e-01 3.1031284962247052e+00 4.6462551236271485e+00 1 0 0
968 1 1.6520040405333436e+00 2.5641438005228867e+00 6.6390464026476170e-01 0 0 1
3708 2 1.1214883313890542e+00 1.9212658765846544e+00 7.7298074956684881e-01 0 0 0
1166 1 1.2796085063806864e+00 3.2895810305410813e+00 1.3949891614350307e+00 0 0 1
3768 2 1.4365816707511414e+00 3.4748340432455280e+00 5.1260637585385993e-01 1 1 0
1042 1 -8.2456442334763647e-01 4.7445314584120855e+00 2.3955019628188381e-01 0 0 0
3757 2 3.4002752521640094e+00 2.2404562014420550e+00 1.1308311297490814e+00 0 0 1
1764 1 2.8362898459833117e+00 2.6634401565737633e+00 6.1487103913375640e-01 1 1 0
1617 1 3.9778133498620853e+00 2.5794468421362930e+00 5.7868337462093267e-01 0 0 1
1785 1 4.7477108401831840e+00 6.0785796888220611e-01 2.9459802929644923e+00 1 1 0
2850 1 7.6287187846392985e+00 2.4178399683185332e+00 2.2623730191162039e+00 1 1 0
1117 1 1.7314102105063429e+00 4.1148627709181165e+00 8.0066234343774995e-02 0 0 1
1505 1 1.4851896323258771e+00 4.2378180242708119e+00 3.6374974681898333e+00 0 0 0
1667 1 7.3512976793049720e+00 9.0082642062928020e-01 1.7763603714519687e+00 0 0 1
1122 1 7.6176016485219291e+00 1.8213622051461367e+00 7.8838304906347398e-02 0 0 0
2076 1 5.4557118423608726e+00 2.3227101539357529e+00 3.0083743669068697e+00 0 0 1
1573 1 4.6241078367632609e+00 2.2535639258106519e+00 3.7157917492662826e+00 0 0 0
1071 1 3.9192384187571050e+00 2.1827000685935349e+00 4.5642791186110099e+00 0 0 -1
1897 1 5.7381807455131453e+00 4.0858093861521216e-01 2.0851181073490279e+00 1 1 1
1029 1 3.7085550386260446e+00 4.8679885505105497e-01 7.2645051789523696e-01 0 0 0
1358 1 1.6693108456093306e+00 1.1743344916326777e+00 1.8715863925749916e+00 1 1 1
1678 1 6.4340486198239297e+00 3.8813601484393820e+00 2.9110790124006329e+00 0 0 1
1489 1 7.6735202110134253e+00 2.3529166646556310e+00 3.3246845297524059e+00 0 0 0
860 1 3.8471337132546628e+00 3.1588591433248214e+00 4.0605780493400010e+00 1 1 1
1988 1 8.1201342238540750e+00 3.1941704471434038e+00 1.7164367374558798e+00 0 0 0
1538 1 6.1221157761482727e+00 1.5987716814901327e+00 3.2593261076562898e+00 0 0 0
1081 1 2.9700018498585390e+00 3.4554709340395120e+00 3.6451923850482508e+00 0 0 1
124 1 2.2607094066626860e+00 4.1834771846253593e+00 4.3395210332026783e+00 0 0 0
3764 2 5.2352800008681539e+00 9.5286757405934874e-01 1.7339319436502942e+00 1 1 -1
1019 1 2.2219749145432015e+00 3.6698938147103024e+00 9.2835580181987787e-01 0 0 0
1198 1 1.3617870362539146e+00 4.2785281979154419e+00 1.0743757518559027e+00 1 1 0
3627 2 2.2155760843000349e+00 4.5158338046173272e+00 7.0073370247526767e-01 0 0 1
814 1 2.8792951665084772e+00 2.6348675207496570e+00 4.2732624552595526e+00 1 1 0
1194 1 3.5812380372998613e+00 2.1195461561705846e+00 3.4297173551672708e+00 1 1 0
567 1 3.3337894512298680e+00 3.5131927523318947e+00 9.7151214677364883e-01 0 0 0
669 1 2.8234148653242723e+00 4.3980681214194872e+00 1.3550178108361102e+00 0 0 1
1062 1 2.4916759974210185e+00 2.3770790328915763e+00 3.3749359479548784e+00 0 0 0
1051 1 2.8510901620596201e+00 4.0969432279194873e+00 2.2995269455441242e-01 0 0 0
3884 2 2.3615935550738323e+00 3.3149195586421238e+00 4.3771542006005175e+00 0 0 1
1858 1 5.6062478115809986e+00 2.2096817742243759e+00 4.1291266131320521e+00 1 1 0
2164 1 1.9240697159942648e+00 3.2700699621117297e+00 3.6049131922304096e+00 0 0 1
503 1 5.3881905329663073e+00 3.3653099679279874e+00 6.3616065297608981e-01 0 0 0
1506 1 4.3812720619566496e+00 3.4672782390823804e+00 9.5724605904265592e-01 0 0 0
1564 1 5.1139666414944136e+00 4.3145897253040202e+00 2.6723880914359982e-01 0 0 1
1572 1 4.9180426270474094e+00 4.1785701657373631e+00 1.5115545506790491e+00 0 0 1
1818 1 3.0112273724218475e+00 3.3936102067380342e-01 3.1144870549418959e+00 1 1 1
3844 2 -1.4706354496535650e+00 4.6590966944212484e+00 1.7416784078446808e+00 0 0 0
1007 1 1.8522601154086988e+00 2.4455724703404220e+00 4.3581488723884654e+00 0 0 0
1470 1 6.2162611151206786e+00 3.3196265252373127e+00 1.4209496281489664e+00 0 0 0
1167 1 8.6166348737943865e-01 2.4294018705260858e+00 4.5160602613388523e+00 0 0 0
1485 1 7.4448076510595991e+00 1.4472813257825825e+00 2.7145785959014801e+00 0 0 0
4119 2 1.6875203016738696e+00 2.1871243387894075e+00 3.5594870105497698e+00 0 0 0
3719 2 1.0859356338381241e+00 3.2151082794899728e+00 4.2987143970885802e+00 0 0 -1
572 1 9.8566801840351526e-01 2.6834209450493334e+00 3.5476667684759038e+00 0 0 0
2250 1 6.6181283581194208e+00 2.4240225595247686e+00 3.8439524713831195e+00 1 1 0
2145 1 7.1512912978184389e+00 3.2548670252630703e+00 3.3810643350195591e+00 0 0 0
4263 2 3.3241451395640897e+00 4.7161602286092901e+00 2.0505437225941443e+00 1 0 0
1689 1 6.8620106125416687e+00 3.2979655553633180e+00 4.3782594520045173e+00 0 0 0
159 1 9.4161384135674342e-01 5.0274606888260975e-01 2.0855104655359971e+00 0 0 0
2642 1 8.6788286585459051e+00 2.4631710727263258e+00 2.3972025062975115e+00 0 0 0
2754 1 7.3916160647012914e+00 3.0369735705356704e-01 3.0722250968492562e+00 1 1 0
1134 1 8.3085640389500470e-01 1.6160373803222279e+00 2.2919974329092230e+00 0 0 1
1040 1 1.4281700247064300e+00 2.1935209443742174e+00 1.6101160552701423e+00 0 0 0
2513 1 6.9815184035857207e+00 1.5304944166739249e+00 9.6320765700714761e-01 0 0 0
1783 1 2.8582130994416000e+00 1.0073673511016998e+00 2.3176737008574353e+00 1 1 0
3878 2 3.1513073747993512e+00 1.1585664090712302e+00 1.2226360180921230e+00 0 0 1
631 1 2.0215463803900815e+00 1.4675446289597385e+00 2.8446633209225323e+00 0 0 0
3756 2 4.4806095638638705e+00 7.8098705115414180e-01 1.2267314212076295e+00 0 0 1
1076 1 8.5250403038254916e+00 3.0379367912548960e+00 6.7212707001700955e-01 0 0 0
575 1 2.8768325213350585e+00 1.3038857889091839e+00 3.3489250884421198e+00 0 0 0
722 1 3.4574473669019214e+00 1.6890225103363101e+00 1.9148458510566158e+00 1 1 0
1147 1 3.8523710234301896e+00 1.0854421570961523e+00 2.8798626126274045e+00 0 0 1
1351 1 4.5073253012375645e+00 1.2167819924934318e+00 2.0141894111085272e+00 1 1 0
3775 2 4.6928874256286335e+00 1.4555393389306108e+00 3.0094312317859084e+00 1 1 0
2444 1 8.5837965443713600e+00 1.3612938360734352e+00 1.6982872051471604e-01 0 0 0
1472 1 6.7000216131410095e+00 4.4442665910342321e+00 1.9930949408769392e+00 0 0 0
3503 2 5.1954068461436265e+00 2.8815671385960075e+00 3.6514789014877240e+00 -1 0 2
3097 1 6.7344067807497696e+00 1.6804403714483082e-01 2.2563655889488063e+00 0 0 1
1065 1 3.7171268886796460e-01 2.2539604092721741e+00 1.5334404884853512e+00 0 0 0
1711 1 6.4309604588275509e+00 3.5520364928415282e+00 4.2238591738415465e-01 1 1 0
1622 1 5.6808103746101706e+00 4.2692025572114218e+00 3.6795617137422370e+00 0 0 0
1855 1 5.4093692227532131e+00 5.6053667208404534e-01 9.6749870939167981e-01 1 1 1
1471 1 7.5866280396091970e+00 6.2659916057082299e-01 4.2672260629238394e+00 0 0 0
1965 1 6.6308770902682372e+00 2.2233639481084237e+00 1.6733000074452762e+00 0 0 0
1455 1 5.8351183114578706e+00 4.0053373487367516e-01 3.1356324138439158e+00 0 0 0
636 1 -1.0300956380727451e+00 4.1661378651500032e+00 2.2569234477418774e+00 0 0 1
1519 1 6.4775162323693785e+00 1.2359823334235178e+00 2.3230609708691166e+00 0 0 0
2646 1 8.4527174555145184e+00 1.6618972333047779e+00 3.0050716133146453e+00 0 0 1
2941 1 7.0729619703862556e-01 2.9325109002708460e+00 2.3149058417302308e+00 1 0 0
3608 2 6.2736641382981373e-01 2.2814349848682909e+00 2.8177692449942202e+00 0 0 0
574 1 9.9746674174965677e-01 4.2328073289513721e+00 4.5834425729249704e+00 0 0 0
555 1 7.3067934334276952e-01 1.1493853914230188e+00 1.2861444520739691e+00 0 0 0
505 1 2.2743975039566302e+00 2.8291113857800707e+00 1.5284444385498814e+00 0 0 0
663 1 1.5339628668106255e+00 2.3483290979432359e+00 2.6878401004790939e+00 0 0 0
3686 2 1.6172733517765641e+00 2.9382391428857861e+00 2.0508549328716370e+00 1 1 0
1446 1 2.3800135586061222e+00 3.1077538115125609e+00 2.5332797436971162e+00 0 0 0
568 1 2.5212666787297047e+00 2.0944803862451047e+00 2.2138452232178638e+00 0 0 0
3703 2 2.7769973661284766e+00 3.5648147999360313e+00 1.5942680824981357e+00 0 0 0
3533 2 3.2185708049388895e+00 2.0033114863639425e+00 2.6685852244089148e+00 1 1 0
1462 1 3.3014190282940179e+00 2.8545225449898894e+00 1.7529324319304742e+00 0 0 0
1511 1 3.4529767290534972e+00 2.9595487479112115e+00 2.7810263077790545e+00 0 0 0
1561 1 4.2647490828807921e+00 3.2005423117638108e+00 2.0899201250710782e+00 0 0 0
2197 1 4.2872417476981726e+00 2.2008079944762113e+00 2.6478593774097692e+00 1 1 0
566 1 4.2158258421815207e+00 2.2305293339655052e+00 1.5159732151488610e+00 0 0 0
1437 1 5.1877644892998571e+00 3.1621057032543871e+00 1.6343215405419147e+00 0 0 0
2101 1 5.1943720106986451e+00 2.2460630610824901e+00 1.9889951069400216e+00 0 0 1
3946 2 5.0160991625146281e+00 2.9067463299863219e+00 2.4747999939824861e+00 1 1 0
1721 1 4.4826797266472580e+00 3.0621958374483036e+00 3.1664394761177856e+00 1 1 0
2421 1 5.4726066468556258e+00 3.3997223683493041e+00 3.0164940000488958e+00 0 0 0
1132 1 1.6117178131315357e+00 3.1418216032004004e-01 4.7900058779405059e+00 0 0 0
1103 1 6.0359565452529882e+00 1.2925474762299740e+00 4.2755555865419117e+00 0 0 0
599 1 4.3503297977743255e-01 8.3563002109836371e-01 2.8972922275832755e+00 0 0 0
991 1 5.4161577110582355e+00 1.3068673737359651e+00 2.5530123434775587e+00 0 0 0
3635 2 6.8275743382684171e+00 1.2026040530102298e+00 4.6876178228589174e+00 0 0 1
1380 1 4.7844949484486854e+00 1.8100086953592731e-01 1.9063454589811935e+00 1 1 1
1190 1 2.9884035083645888e-01 1.6579783547679363e+00 4.8973991194618988e-01 0 0 1
1975 1 9.0487349693246344e+00 1.3239928567221007e+00 1.0982438009220608e+00 0 0 0
2176 1 6.6039558755715202e+00 5.2951489173347432e-01 3.8584864561687624e+00 1 1 0
878 1 5.0327017503816771e+00 7.6241738661676817e-01 4.5439828367034005e+00 1 1 0
2468 1 7.2871600079236831e+00 3.3992712885919900e+00 1.1443759264588733e+00 0 0 0
1682 1 4.8221443606761145e+00 3.7278537453456368e+00 3.8160619954586252e+00 0 0 0
3865 2 3.5146727316813120e+00 4.3257765046891201e+00 8.2679681207812394e-01 0 0 0
580 1 4.2525924002564386e+00 1.1729380032736654e+00 3.8576271310819821e+00 0 0 0
1950 1 5.2499958182089603e+00 1.2184793285931559e+00 3.6107020261597689e+00 0 0 0
1458 1 4.5931294383921717e+00 1.7076275577279844e-03 8.1184526513693089e-01 0 0 0
1696 1 4.9408594496547016e+00 4.6554925927884554e+00 4.3612141718036925e+00 0 0 0
1160 1 5.8486592083540874e+00 1.5118705688520067e+00 1.5356683990209103e+00 0 0 0
1440 1 1.4550015355146262e+00 3.5346239056234765e+00 2.7327716021023920e+00 0 0 0
664 1 1.9935951556207543e+00 4.0369534275720218e+00 1.8916991194046895e+00 0 0 0
1499 1 4.9583591924973405e+00 2.1610920550715926e+00 1.8131334482324435e-01 0 0 1
3121 1 6.3740758786858223e+00 4.2091165555196479e+00 4.5549585518333640e+00 0 0 0
994 1 2.4749351550740464e+00 4.2329579267732020e+00 3.2138898102610916e+00 0 0 0
1428 1 3.8612637969178047e+00 4.1267106639486117e+00 1.6372303770755521e+00 0 0 0
30 1 3.3174632874176835e+00 4.4626270110109143e+00 3.9865713172831896e+00 0 0 0
534 1 3.9139912786319746e+00 3.9964373978549750e+00 3.2293886758992896e+00 0 0 0
1271 1 3.1354403781885787e+00 3.9129103579751114e+00 2.3157959068506990e+00 1 1 0
952 1 5.6049129492288428e+00 2.4331001308980666e+00 1.0381274274801300e+00 0 0 0
3838 2 4.1945472099669310e+00 4.3951291672052673e+00 3.9774668279892005e+00 0 0 0
2946 1 6.4463295681710635e+00 6.5822090077972173e-01 1.3160918873326646e+00 0 0 0
1072 1 5.7625511360066284e+00 3.9660747406188839e+00 2.0626370206968407e+00 0 0 0
1535 1 4.7107092002354207e+00 3.9592601885332268e+00 2.5206960566067771e+00 0 0 0
3964 2 5.5207472504692490e+00 4.2606934287097333e+00 2.8429625604977686e+00 1 1 0
1979 1 6.9923699727086284e+00 3.2418782025635693e+00 2.1492883349994409e+00 0 0 0
3602 2 4.2613737295355847e+00 4.3509603029778432e-01 4.3529022006604050e+00 0 0 0
2360 1 3.1274989444436292e+00 1.5442855869288112e+00 4.3253412158561160e+00 1 1 0
1425 1 5.9304223725840934e+00 3.2816485834954099e+00 3.9370982437214277e+00 1 1 0
3856 2 3.4407731692704244e+00 7.8850316863421710e-01 3.7837749744827773e+00 0 0 0
386 1 2.4942795042260064e+00 5.1827242662125594e-01 4.0852838263191869e+00 1 1 0
3460 2 6.2779280303047784e+00 2.9997028510921373e+00 3.1762629748014919e+00 -1 0 0
4242 2 7.4491129819404120e+00 1.8075611781035685e+00 1.6935769850822007e+00 0 0 1
235 1 1.9859596275094229e+00 1.4036698597158728e+00 3.9198378548047335e+00 0 0 0
481 1 1.0703168495516677e+00 1.6496570725343465e+00 3.3291819061474248e+00 0 0 0
1054 1 1.1713533587311087e+00 7.9626004236013193e-01 3.8615192759918302e+00 0 0 0
3676 2 6.0303017505602838e+00 1.9911028552781700e+00 2.2943962783119294e+00 1 1 1
751 1 2.0010861816200936e+00 5.5516517789649766e-01 3.2246396653118263e+00 1 1 0
4264 2 1.3450714188788748e+00 9.3406646719901110e-01 2.6830511213010455e+00 1 0 1
3707 2 4.2107147947615386e+00 1.6554817107402839e+00 6.8167995223731986e-02 0 0 0
652 1 1.0461350431895378e-01 1.1040572783211835e+00 3.8774272459087626e+00 0 0 0
4238 2 -2.6744693373202200e-01 4.0134264386806624e+00 1.6890388602115287e+00 1 0 0
3588 2 -1.8499835589036895e-01 3.8489928078241551e+00 3.3347458868899200e+00 0 0 0
1073 1 3.9640217135675377e+00 1.0416669638846135e-01 3.6097104646300875e+00 0 0 0
1991 1 8.1382736305227645e+00 5.9800023475697517e-01 2.4471500589941662e+00 0 0 0
2056 1 7.9489171421431282e+00 1.3063040941486206e+00 9.1405830462491744e-01 0 0 1
3619 2 6.3742215777838718e-01 3.4078150405817897e+00 3.0221057752004583e+00 0 0 1
2055 1 8.7370279120160355e+00 2.2667016573136038e+00 1.3125694485300332e+00 0 0 1
2631 1 8.0324077485198124e+00 3.3738777031822544e+00 2.7764958664304289e+00 0 0 0
2330 1 7.3697988185273804e+00 4.3808485358388888e-01 8.9079551529262446e-01 1 1 1
550 1 1.5924208418163344e+00 4.6430153982770124e+00 2.7123691345692715e+00 0 0 0
529 1 -6.4070314542171947e-01 4.5340190327010488e+00 3.1888814241198493e+00 0 0 0
622 1 -4.3447020543685583e-01 2.6479176354401268e+00 8.6944327206066574e-01 0 0 1
1022 1 5.4589360458482639e-01 4.3652571891599230e+00 3.0618629346726687e+00 0 0 -1
1594 1 9.0947644679373454e+00 1.3247317015409719e+00 3.8046907239591858e+00 0 0 0
2677 1 8.3371395860063586e+00 4.4415565150450126e-01 1.3655270439008809e+00 0 0 1
1512 1 1.9639493502933203e+00 2.1024028478156614e-01 2.2834890709893325e+00 0 0 0
656 1 5.5061602861077019e-01 3.7353360698790925e+00 5.0988374740135445e-01 0 0 1
964 1 7.6965092271292210e+00 4.1399505932447189e+00 1.7860888513642905e+00 0 0 0
1018 1 -7.3133366842996483e-01 4.6131493885690986e+00 1.3180334363816959e+00 0 0 0
1550 1 6.0475520949419188e+00 3.5653739678700319e-01 4.7776416243476545e+00 0 0 0
3127 1 5.3325650630389232e-01 3.6497499243383453e+00 3.8713718534236086e+00 1 0 0
177 1 -9.9223492375908595e-01 3.5058826889233474e+00 3.2122012127858670e+00 0 0 0
1563 1 6.1752156705774190e+00 1.2550793968915810e-01 5.1580408503501074e-01 0 0 1
668 1 2.8049919635985265e-01 3.3139073001312291e+00 1.4362467873798206e+00 0 0 0
1000 1 -4.9014302820039046e-02 1.1288666247584518e+00 1.9945209654131812e+00 0 0 0
1513 1 4.3503779669400213e+00 4.6639150539733931e+00 7.9970057170080555e-01 0 0 0
987 1 3.2952055693465079e+00 1.8486645161487685e+00 1.0448617272363928e-01 0 0 0
1066 1 7.9699651101310804e+00 3.9893758565691129e+00 6.1348142076508083e-01 0 0 0
962 1 -4.5340153842380992e-02 4.6922003483477868e+00 2.2090807363912366e+00 0 0 0
232 1 -6.2131708221345316e-01 3.8454640377539899e+00 4.0887128545388398e+00 0 0 0
1376 1 -1.3504678333697195e-01 1.8507907563356698e+00 2.7673088620696249e+00 1 1 0
2174 1 2.0182755257938725e+00 1.6538848326020786e-01 4.3773581308021753e-01 1 1 0
1039 1 7.6706217914250296e-01 4.0345005569108414e+00 2.0004373555928701e+00 0 0 0
2081 1 8.1104686128979928e+00 3.2685928337408137e+00 3.9234978647140988e+00 0 0 0
4281 2 8.3084648905481995e+00 2.2230619097539805e+00 3.3953184946917347e-01 1 1 0
3918 2 8.3586801142563538e-01 9.4316631105914206e-01 1.1558843935192117e-01 1 1 0
802 1 -6.2667466495923363e-02 2.9956682417226825e+00 4.4268369605111815e+00 1 1 0
2737 1 8.3019288847518560e+00 6.8009171468388563e-01 3.4603703087949671e+00 1 1 0
889 1 4.8495575767147630e+00 1.7782414717458928e+00 4.7640403084220235e+00 1 1 0
3587 2 5.0365636558122535e+00 4.7539906645012442e+00 2.2221799545688219e+00 0 0 0
2251 1 9.2967859854260073e+00 4.2921685229295947e-01 4.7112608014048343e+00 1 1 0
2120 1 8.5651534713618585e+00 2.6484632010802014e+00 4.6364951785649611e+00 0 0 0
610 1 1.6541138128836197e-01 1.5921918444904284e+00 4.7695245447673669e+00 0 0 0
3040 1 7.8585925062758522e-01 4.6837642496128522e+00 2.3935611721733768e-01 1 0 0
2996 1 2.7857928500991336e-01 4.5016585434521836e+00 1.1222092435535076e+00 1 0 0
2538 1 7.6810657114656911e+00 2.3820202434106577e+00 1.0173003961183307e+00 0 0 0
2340 1 6.7066237939205013e+00 8.8392648970399934e-01 1.3485338808344158e-01 1 1 1
3128 1 -4.3334808084086851e-02 2.8818785487280425e+00 3.1274404759597600e+00 1 0 0
548 1 3.1280799139137123e+00 3.6393867080659681e+00 4.7026159407050638e+00 0 0 0
253 1 1.3913731215015857e-01 1.1532270359096890e-01 1.3458627477480412e+00 1 1 0
559 1 8.3802865384599468e-02 4.7071596590279468e+00 3.9632029186692570e+00 0 0 0
615 1 -7.2320774597904969e-01 3.2205469371825264e+00 1.7043631416150158e+00 0 0 1
2108 1 4.2838381965002945e+00 3.9605089842124492e+00 4.7366698360643289e+00 0 0 0
3606 2 -1.3390447383606863e-01 2.8194266524830858e+00 2.2135564806458028e+00 0 0 0
1500 1 9.1780269067324411e+00 9.2815722121777400e-01 2.8877159260737018e+00 0 0 0
2854 1 7.5168641930808624e+00 2.4466545953605610e+00 4.4387042687071441e+00 1 1 0
4228 2 4.7671679287360186e-02 3.3693241220345937e-01 2.2652826741549839e+00 1 0 0
1913 1 1.4076489046293776e+00 1.5174142071588201e+00 4.7459184276326507e+00 1 1 0
2386 1 8.2825732145366544e+00 1.5218311066084753e+00 1.9406470624945260e+00 1 1 1
2063 1 7.4341217364149292e+00 4.3298660028778677e+00 2.8656190073241645e+00 0 0 0
1242 1 2.1739497293330698e+00 1.8791132593180886e+00 1.3125083048092404e-01 1 1 0
1457 1 6.5865586258956341e+00 4.7290994162300262e+00 3.5022713324951429e+00 0 0 0
2084 1 6.1857425629827336e+00 4.5427464383076597e+00 7.0177121187276273e-02 0 0 1
1286 1 9.5902740632268868e-01 9.7458109076384411e-04 3.0274469559340247e+00 1 1 0
4133 2 6.8725695109716849e+00 4.8261159469421822e+00 4.2858403004753125e+00 0 0 0
4250 2 -8.5720133265304499e-01 4.8215760465767312e+00 3.9585242093264092e+00 1 0 1
1644 1 5.3736503135555580e+00 3.8019578970639474e+00 4.8233318081353032e+00 0 0 0
3391 1 8.8678992177605860e+00 3.8437713372402627e-01 6.7832240925325555e+00 1 1 0
1984 1 7.9935511513949082e+00 2.4046162378220717e+00 5.4876909742456093e+00 0 0 0
186 1 2.4441510125420085e+00 4.4363379626199366e+00 8.3591418710391352e+00 0 0 0
1634 1 6.4455040435956032e+00 3.9782907323088539e+00 7.6701180433673866e+00 0 0 0
1504 1 4.7929784681193759e+00 4.6584486220474126e+00 5.3936231565283972e+00 0 0 0
581 1 -9.8715644427831706e-01 3.5697063075123814e+00 9.5545502201579637e+00 0 0 -1
2039 1 7.0812489013988502e+00 4.5719649100859155e-01 5.1834290469148661e+00 0 0 -1
370 1 5.4108275228420277e-01 1.1808388368855197e-01 8.0536731842588232e+00 1 1 0
3364 1 6.1359623693057186e+00 4.1314562162564966e-01 5.8492657868349678e+00 1 1 0
1184 1 4.1275770959457327e+00 4.4426625338024701e+00 6.2750751044412256e+00 0 0 0
2473 1 8.0768210735694304e+00 8.6364982766922027e-01 8.4819290961020659e+00 0 0 -1
2621 1 8.3888281080039597e+00 2.8418324535481649e+00 7.2768472508326250e+00 0 0 0
538 1 3.2817124052364912e+00 1.2402492059627022e+00 6.6546129143572630e+00 0 0 -1
4177 2 2.1922183267586326e+00 2.0588968805931587e+00 5.2730803927607424e+00 1 1 0
4000 2 -3.7202406496827267e-01 4.5918721176629846e+00 7.2233109762528924e+00 0 0 0
913 1 -1.4797760027407625e-02 1.1656584814336841e+00 6.6175240720093269e+00 1 1 0
1681 1 7.0432576265514060e+00 2.8089722786394447e+00 5.4441749317241923e+00 0 0 0
3924 2 4.8366986571014579e+00 7.2876221639738326e-01 7.5471802095448082e+00 1 1 -2
1434 1 1.5638876065983764e+00 2.4012876003535824e-01 8.5185853482742342e+00 0 0 0
3752 2 8.1668787350368555e-01 1.9401134754891323e+00 5.3077913777162280e+00 0 0 0
526 1 4.6812134276174805e-01 1.2260364589223549e+00 5.6864935469820868e+00 0 0 -1
1080 1 1.5314221417999097e+00 1.5615658674968433e+00 5.7915185307573802e+00 0 0 0
3881 2 7.5933511639456288e+00 3.4194440946494331e+00 8.9103714138127721e+00 0 0 0
1531 1 5.6542693888487188e+00 8.3652824939430348e-01 9.5395503133597899e+00 0 0 0
4295 2 1.8723397065791414e-01 7.3680694544803704e-01 8.4656068379793563e+00 2 1 0
1498 1 1.1217371768723283e+00 8.8081784669883412e-01 6.3715300972960565e+00 0 0 0
1683 1 2.4937743388487994e+00 1.4728847948583264e+00 6.0112769720753185e+00 0 0 0
1199 1 3.0424320030179945e+00 2.0968773013033015e+00 5.1747223193776160e+00 1 1 0
4081 2 2.2641697414012327e+00 3.9032930749194596e+00 9.0987915858141832e+00 0 0 -1
3793 2 6.2789947674589275e+00 2.2878767165839342e-01 9.3274582183220840e+00 1 1 -1
1349 1 4.1013211577791466e+00 1.0079342765031374e+00 5.9816100917398343e+00 1 1 0
4122 2 4.7007430697371024e+00 1.2447223121008253e+00 5.3943541575969594e+00 0 0 0
971 1 7.2120868308682011e+00 3.9358218580843580e+00 9.5053201912112382e+00 0 0 -1
1654 1 5.0733399015656762e+00 1.7276616819406916e+00 6.0043114092338605e+00 0 0 0
1907 1 5.1254257576022217e+00 6.7331974739842171e-01 5.9947286939475521e+00 1 1 0
2102 1 8.1690000074493287e+00 5.3987863356703324e-02 7.7216603527801793e+00 0 0 0
4175 2 7.2821623637167257e+00 1.7663286006875221e+00 7.7969493708107445e+00 1 1 0
626 1 6.4382211981748161e-01 2.6889398331052843e+00 7.1200486112184525e+00 0 0 0
1955 1 6.2494756841824044e+00 4.0213258849942015e+00 6.5646337406781496e+00 0 0 0
933 1 -6.2320292294913915e-01 3.3573480638176920e+00 8.5698799905702145e+00 1 1 0
4302 2 -6.7397616921976466e-01 2.4720387345623069e+00 5.7894327879962839e+00 2 1 0
1407 1 7.5670739678663974e+00 2.5487583477912774e+00 8.8617788313377925e+00 1 1 0
2364 1 8.5477023564326657e+00 2.3492280793131730e+00 6.3613546929700489e+00 1 1 0
1142 1 4.4304807872627432e+00 4.3376057632332747e+00 9.1268360104362092e+00 0 0 0
2753 1 7.4211374820371718e+00 8.2043369784095166e-01 7.7664466901458571e+00 1 1 0
1212 1 7.7206854562804299e+00 7.1514742068848713e-01 9.6256736096097679e+00 1 1 -1
2347 1 9.4617409402465373e+00 4.1946632467454803e-01 5.7816232426200918e+00 1 1 0
1095 1 5.7957448516515786e+00 2.2386168468684273e+00 7.9031771344471240e+00 0 0 0
4220 2 5.7807411000065940e+00 1.5789008409129874e+00 7.2985899228054620e+00 0 0 -1
1180 1 7.5992275405555754e-02 2.4737835353147353e+00 5.3646442484914685e+00 0 0 0
3335 1 7.7330147389903949e+00 3.3579918542152851e-02 6.0513587282877248e+00 1 1 0
1114 1 1.4932674312272254e+00 2.5475763675063932e+00 5.3423997372540883e+00 0 0 0
1187 1 2.2090093279707794e+00 2.4979248202380515e+00 6.1248247285122828e+00 0 0 0
659 1 1.2435907215892690e+00 3.1513547771715364e+00 6.1747016305394213e+00 0 0 0
3713 2 1.9007556341475016e+00 3.3632065902795989e+00 5.6939324820032704e+00 0 0 0
698 1 8.2251253443012573e-01 2.2447707892282436e+00 6.1213282509839129e+00 0 0 0
1177 1 2.4711364815053694e+00 2.9402245474461366e+00 5.2273584842875742e+00 0 0 0
1853 1 3.2400384916740670e+00 2.2290762693518507e+00 6.2676599287396941e+00 1 1 1
3123 1 3.0724256344822036e+00 3.2569824374841971e+00 6.1030604914666249e+00 1 0 0
3577 2 3.9075743719072644e+00 2.7095717722349222e+00 6.1791338290692073e+00 0 0 -1
1361 1 6.7986015333300163e+00 2.3227712197365928e+00 8.2511972353164857e+00 1 1 0
1647 1 4.0599943104389569e+00 2.1201327066864293e+00 5.5745666050189664e+00 0 0 0
1049 1 5.0844410057845018e+00 2.6332636098162907e+00 5.3567106249890957e+00 0 0 0
2196 1 5.7297599048849266e+00 3.3000859855530731e+00 6.0291596048310971e+00 1 1 -1
1153 1 4.8099903346112765e+00 2.7911845924345848e+00 6.3682333541500391e+00 0 0 0
1171 1 6.4274946939563531e+00 3.7529734331871674e+00 5.4584577906811251e+00 0 0 0
1676 1 3.9644340357429213e+00 3.1163667354150451e+00 5.1722019780596744e+00 0 0 0
2161 1 7.2901051530748067e+00 3.5233230620800926e+00 7.0467610699167462e+00 0 0 0
1099 1 3.2378223276548646e-01 4.6722402119640538e+00 6.5709273296679669e+00 0 0 0
227 1 1.4840347072147213e+00 4.0015063103924273e+00 8.6915026901321593e+00 0 0 0
2042 1 7.0590359846523576e+00 7.3797891365569079e-01 6.2294926085624773e+00 0 0 0
621 1 2.0660511312823302e+00 5.3593357696255017e-01 5.7671503539215241e+00 0 0 0
1021 1 5.7020090097371821e+00 3.5416699439906427e+00 9.2646239672154884e+00 0 0 0
1640 1 5.1536962564037019e+00 2.6040281385026103e+00 8.8080089936751040e+00 0 0 0
784 1 4.9919772695368652e+00 1.1857824065915261e+00 6.9133253102195482e+00 1 1 0
2060 1 7.6053178257932501e+00 2.7498873330682314e+00 6.3994901041397485e+00 0 0 0
1093 1 1.4192819366352289e+00 4.1280500039064396e+00 5.6080672125516156e+00 0 0 0
3787 2 4.4572392454523957e+00 3.9822815921115389e+00 7.2408866631170872e+00 0 0 0
2088 1 2.5315115589984378e+00 3.9249295362053553e+00 5.4538896456572559e+00 0 0 0
127 1 2.1540924384192417e+00 3.6590646293305964e+00 6.4967214009483714e+00 0 0 0
3749 2 5.7691335061189735e+00 4.0486600850559755e+00 8.3059239295401586e+00 0 0 0
1085 1 3.6200791495344267e+00 4.1209230907624592e+00 5.4577071753748072e+00 0 0 0
3016 1 3.0639895285258931e+00 4.2999324634452512e+00 6.2757275788592910e+00 1 0 0
1078 1 4.3256603130653666e+00 2.1918734793187169e+00 8.1657300644100168e+00 0 0 0
1030 1 4.6830970113747306e+00 3.6941898937282769e+00 5.6497138050581333e+00 0 0 0
1107 1 1.6614094154276495e+00 8.1727636502828560e-01 9.3590806578133794e+00 0 0 0
1115 1 5.0924719800749987e+00 4.0882458476077206e+00 6.5797711365103781e+00 0 0 0
1635 1 6.9533222249711262e+00 1.9944960817882438e+00 6.2459772145353174e+00 0 0 0
3634 2 5.2242982384368064e+00 2.8459686085434530e+00 7.9127509674202292e+00 0 0 0
2115 1 8.1447200432867799e+00 2.1153860102981938e+00 8.0986628557801463e+00 0 0 0
624 1 4.1158522405760678e+00 2.3073377125278336e+00 9.2042525023796884e+00 0 0 0
2612 1 8.1648527588761102e+00 3.2543043488329753e+00 8.3140595903542867e+00 0 0 0
3738 2 5.6634890280952277e+00 6.5757826124858465e-01 6.7008388308487516e+00 0 0 -1