LAMMPS data file via write_data, version 12 Dec 2018, timestep = 199320

4320 atoms
2 atom types

0.0000000000000000e+00 1.9309999999999999e+01 xlo xhi
0.0000000000000000e+00 1.9309999999999999e+01 ylo yhi
0.0000000000000000e+00 9.6549999999999994e+00 zlo zhi
5.8316199999999974e+00 0.0000000000000000e+00 0.0000000000000000e+00 xy xz yz

Masses

1 1
2 1

Atoms # atomic

2850 1 9.8940448149678186e+00 2.2972287052218907e+00 2.2473808551903822e+00 0 1 0
115 1 1.1852320615106346e+00 1.5186713521157919e-01 1.1918803291695670e+00 0 0 0
2330 1 9.2367707386353946e+00 3.5460712952346785e-01 9.1934065441684221e-01 0 1 1
1359 1 7.1140084648911488e+00 1.7654841915076003e+00 1.1828900567124891e-01 0 1 1
3622 2 7.8800661320639365e-01 6.2140101616003818e-01 5.1545440857426772e-01 0 0 1
1870 1 8.0857158876968747e+00 1.6324309979429097e+00 4.3537212397111252e-01 0 1 1
3192 1 4.1494045326976070e-01 1.2283485591053809e+00 3.6988071729424847e+00 1 0 0
3205 1 9.5300630059989611e-01 1.5148968361878064e+00 9.5961024969350051e-01 1 1 0
1544 1 8.8454305116511058e+00 2.4394970728976091e+00 5.5888613491153027e-01 0 0 0
851 1 1.6852340341953247e+00 8.2985378621170125e-01 5.8061107903000586e-01 0 1 0
3635 2 9.2882338346521394e+00 5.5341690129861343e-01 4.4538668748269119e+00 0 0 1
1190 1 2.7914948909496009e+00 1.2947894673429017e+00 1.2127269159143246e+00 0 0 1
3918 2 2.4867572840909782e+00 1.2151878377643519e+00 4.0303977756215631e-01 0 1 0
2064 1 6.9433170674906031e-01 2.2402697198818817e+00 1.8024050624486365e-01 1 0 1
1127 1 3.0943654565552028e+00 4.8394586804652578e-01 6.1122552011135023e-01 0 0 1
1554 1 3.7737673139085057e+00 1.2015490808706781e+00 9.9792774284260621e-01 0 0 1
4042 2 3.0977290897637646e+00 1.0608202045124762e+00 4.3689933670820240e+00 0 1 0
95 1 4.1761776664807320e+00 4.1925730591339022e-01 1.5975668906890892e+00 0 0 0
2174 1 4.2398580147444305e+00 5.4403832523992457e-01 3.7607033125184336e-01 0 1 0
2468 1 9.4945600020762804e+00 3.2524160556679904e+00 1.0124581659634293e+00 0 0 0
870 1 4.5297069080498309e+00 1.8727063707417508e+00 1.3463784527414946e+00 0 1 1
1798 1 5.2841705609651450e+00 1.0263707957221755e+00 8.3984496163605016e-01 0 1 0
2689 1 8.9552195427120740e+00 2.3631143291622663e+00 2.7777025481770901e+00 0 0 0
906 1 8.1923086073346258e+00 2.8561750383996714e+00 2.2635043917878113e+00 0 1 0
1615 1 6.2682804025326959e+00 1.6794562809717104e+00 7.8325356812630154e-01 0 0 1
4208 2 1.1348466080198734e+00 2.6461196368225433e+00 4.6095032047600624e+00 1 0 0
1644 1 7.5727638801256729e+00 3.7711333314421949e+00 4.8061715505255913e+00 0 0 0
767 1 7.2362402521220783e+00 8.9351017832439994e-01 7.9752736697362325e-01 0 1 0
1621 1 6.9959812691956147e+00 4.6987582735765612e+00 3.0906433547377881e+00 0 0 0
3468 2 7.3215461211616732e+00 1.7806432982041089e+00 1.0118696913411618e+00 -1 0 1
2132 1 9.5535233957467103e+00 1.4627871116077424e+00 3.9342974749665700e+00 0 0 0
1671 1 9.0798929710099010e+00 4.3197908063294026e+00 8.3693161478750033e-01 0 0 1
1979 1 9.2329016840361398e+00 3.2730571254203236e+00 2.2976105938009654e+00 0 0 0
3771 2 8.8656327329895657e+00 4.0527258388416723e+00 3.5732859408879452e+00 0 1 -1
1066 1 1.0026126706861712e+01 4.0633747062817269e+00 5.9940133655754246e-01 0 0 0
4063 2 8.7310146260631978e+00 6.8150162938989456e-01 2.7053745717411446e+00 0 1 1
1855 1 7.4678922045225784e+00 2.0306734485603176e-01 1.5285583764940887e+00 0 1 1
177 1 1.0833990711569883e+00 3.5248202947725407e+00 3.1660454471016708e+00 0 0 0
2201 1 8.1097908224341424e+00 4.4602704526790715e+00 1.0112311157695786e+00 0 1 0
1513 1 6.5071591453643656e+00 4.7593953295801272e+00 6.3743747828668373e-01 0 0 0
622 1 1.5512438504860282e+00 2.5117444110203984e+00 8.7818259561052137e-01 0 0 1
3750 2 1.8732657102410402e+00 1.7173605964675593e+00 9.2427319407990904e-01 0 0 1
34 1 2.6406517379666270e+00 2.2025690801410316e+00 6.4008135314953807e-01 0 0 0
1065 1 2.2070113281908776e+00 2.1990176167255675e+00 1.6127717150602292e+00 0 0 0
968 1 3.7437013582181864e+00 2.2197455344736956e+00 6.4771454135035156e-01 0 0 1
3708 2 3.6419614783015608e+00 1.8758925830063731e+00 1.5086735539407072e+00 0 0 0
1166 1 3.1434809532753745e+00 2.6380344470656070e+00 1.4024680003971126e+00 0 0 1
3768 2 3.6000430562464611e+00 3.0807715242619977e+00 7.1256361645353250e-01 0 1 0
3565 2 7.8492904634130074e+00 4.6213820839687383e+00 4.4544317627049788e+00 0 0 0
3757 2 5.4536232896013210e+00 1.9045392792319953e+00 9.7109272000058378e-01 0 0 1
1764 1 4.8750004095705535e+00 2.4926946251296331e+00 5.8640139311785566e-01 0 1 0
1617 1 5.8762620188783981e+00 2.6282332634505425e+00 7.6547212627587058e-01 0 0 1
1785 1 6.9864800192989929e+00 7.8832349928808987e-01 2.7639050865042187e+00 0 1 0
1499 1 6.9793652512823661e+00 2.5625071054022586e+00 8.3159506187319576e-01 0 0 1
4116 2 3.2896506711273368e+00 8.4949694388219821e-01 1.7070941098594403e+00 1 0 -1
1505 1 3.5073762997536830e+00 4.0340626461147764e+00 3.5109067725275609e+00 0 0 0
1667 1 9.6587375647167075e+00 7.4774968090526817e-01 1.7809682961109532e+00 0 0 1
1963 1 8.2532750350024813e+00 2.9067428837109146e+00 4.7828876160759393e+00 0 0 0
2076 1 7.9908919050348945e+00 2.1853376078349318e+00 3.1274881201290947e+00 0 0 1
1489 1 9.8054792198897651e+00 2.3288702268384633e+00 3.4608814782717379e+00 0 0 0
751 1 4.3166895980968727e+00 1.5513414003023193e-01 3.1229616339209718e+00 0 1 0
1897 1 8.5552016984609978e+00 4.8885942358806456e-01 1.8542367808423590e+00 0 1 1
50 1 3.9547140289967180e+00 4.7484774291008840e+00 1.5875875439126812e+00 0 0 0
1441 1 9.6576307654376432e+00 2.8244996641196982e+00 7.8330802806938465e-02 0 0 0
2081 1 1.0125825210221610e+01 3.5426738986342450e+00 3.8781483695859600e+00 0 0 0
656 1 2.7515833426151826e+00 3.4190078031686753e+00 5.9669165997671048e-01 0 0 1
2996 1 2.4347884632696530e+00 4.2862930923485569e+00 1.1925085019063746e+00 1 0 0
717 1 1.6503103234727456e+00 3.5466895021733609e+00 8.0433014271701342e-01 0 0 1
1538 1 8.6884786728945027e+00 1.4349907738211929e+00 3.2228172177687231e+00 0 0 0
668 1 2.3448053119520726e+00 3.2587056392675864e+00 1.5801958383586827e+00 0 0 0
124 1 4.5381162624345990e+00 3.9313507645840033e+00 4.1704739989898947e+00 0 0 0
3764 2 7.3366019616340887e+00 1.0771226875096527e+00 1.9384516811105152e+00 0 1 -1
1019 1 4.3916320382337162e+00 3.4226873000340023e+00 1.0263017074039382e+00 0 0 0
1198 1 3.4798118126546238e+00 3.8584319533337514e+00 1.2775831085965599e+00 0 1 0
3627 2 4.2798223035803726e+00 4.3160734464991055e+00 8.8477732592723801e-01 0 0 1
2159 1 9.5945804312070475e+00 4.4178845346006765e+00 3.9386677197141511e+00 0 0 0
529 1 1.4842632856564888e+00 4.4899427606918811e+00 3.1631734931757052e+00 0 0 0
567 1 5.4487085096084424e+00 3.5696268723603408e+00 1.1256202828695485e+00 0 0 0
669 1 4.9208364437618490e+00 4.3655245823318882e+00 1.3874054676946761e+00 0 0 1
3865 2 5.5422800373222376e+00 4.4132651775785261e+00 7.9864162453617082e-01 0 0 0
1051 1 4.9709982772540453e+00 3.9545731865618814e+00 3.1138409192785671e-01 0 0 0
2098 1 6.0045477287343321e+00 3.9045870511073097e+00 2.7421523112662016e-01 0 0 1
1858 1 7.6350394145718177e+00 1.9772590556995582e+00 4.3965299086725924e+00 0 1 0
628 1 6.0813139891519494e+00 4.7908878876912810e+00 4.6851646303274874e+00 0 0 0
503 1 7.7451611499966964e+00 3.3946346937618204e+00 8.6570663755151522e-01 0 0 0
1506 1 6.5761112750511970e+00 3.5639428897293874e+00 1.0655336266522799e+00 0 0 0
1564 1 7.3809557735448310e+00 4.3428318576749643e+00 2.3911521500556845e-01 0 0 1
1572 1 7.1730140514402336e+00 4.4914473578585374e+00 1.4115822275803487e+00 0 0 1
1076 1 1.0488463386900053e+01 3.1108894595076597e+00 5.6859627717291095e-01 0 0 0
253 1 2.2723027710143855e+00 3.2808395503839599e-01 1.2259440289777934e+00 0 1 0
1029 1 6.1444390523416459e+00 7.7088464467794793e-01 2.6092192843153522e-01 0 0 0
1470 1 8.6150675412870399e+00 3.3999998845128707e+00 1.4843449604104362e+00 0 0 0
1167 1 2.9203316177880541e+00 1.9985554276122857e+00 4.5951373898594481e+00 0 0 0
1485 1 9.7101067767598401e+00 1.4453307387960035e+00 2.8672918294437424e+00 0 0 0
520 1 7.4175156525491359e-01 8.9953253064692140e-01 1.8388706192334507e+00 0 0 0
2754 1 9.5047281423481351e+00 3.5223090403617835e-01 2.7218813263880830e+00 0 1 0
715 1 8.3512105261372516e-01 5.2886681395452551e-01 2.8604065645895487e+00 0 0 0
2250 1 8.7519917949948329e+00 2.2874790350178844e+00 3.8598405867916337e+00 0 1 0
1000 1 1.7715548754762180e+00 1.2599246420341930e+00 1.6661855922486821e+00 0 0 0
4214 2 1.3375030448781107e+00 1.1941938137230819e+00 2.4226908360868520e+00 1 0 0
817 1 1.6625933716240886e+00 3.1060846978032269e-01 2.2193866711698607e+00 0 1 0
159 1 2.5659649865412231e+00 7.8539504283121697e-01 2.1884778774349898e+00 0 0 0
992 1 1.9616673170602734e+00 8.7976352910204281e-01 3.1804648852464661e+00 0 0 0
2854 1 9.6836246182485102e+00 2.5479970981357210e+00 4.4859678986745202e+00 0 1 0
1134 1 2.9318220618511162e+00 1.1466915944366531e+00 3.0544605300066805e+00 0 0 1
1040 1 3.9485650344020593e+00 1.2946814530744613e+00 2.0618270085153680e+00 0 0 0
1358 1 3.5058414674649820e+00 4.4467869376130575e-01 2.4123211145515882e+00 0 1 1
1783 1 4.7728855541952120e+00 8.1656711866971499e-01 2.4744365855627590e+00 0 1 0
3878 2 4.8163650787227024e+00 9.8776330496505504e-01 1.6329823351233401e+00 0 0 1
631 1 4.0829821134217825e+00 1.2399174362468219e+00 3.1173339136582441e+00 0 0 0
3756 2 6.1701114070950025e+00 8.7548051030459029e-01 1.2096804869020719e+00 0 0 1
1357 1 5.6041420062096812e+00 5.2929799241307074e-01 1.7586995941944437e+00 0 1 1
575 1 5.2297655688722582e+00 1.3298763173174244e+00 3.2909836665369152e+00 0 0 0
722 1 5.5101819093670050e+00 1.5910147719735170e+00 1.7903794729092177e+00 0 1 0
1147 1 5.9693915478057109e+00 9.5594449315010532e-01 2.7170724987500767e+00 0 0 1
1351 1 6.5482136047647215e+00 1.3234738231396344e+00 1.7719577857927939e+00 0 1 0
3775 2 7.2895480080107475e+00 1.6104182364199215e+00 3.0017590031546071e+00 0 1 0
987 1 5.4877552635149396e+00 1.8080930213992481e+00 5.4181768680657855e-02 0 0 0
56 1 3.2732931450953151e+00 1.4726602489070759e+00 1.0893756236798668e-01 0 0 0
3503 2 7.8907818708136652e+00 2.6976090517257627e+00 3.8467326266354398e+00 -1 0 2
1242 1 4.4356048685029448e+00 1.5696652442701389e+00 2.5494078620655147e-01 0 1 0
1684 1 1.0464879683546652e+01 4.5566270283895198e+00 3.3454480829451851e+00 0 0 0
2538 1 9.8476404411127270e+00 2.2500319654023682e+00 1.0614703776918795e+00 0 0 0
1622 1 8.0118448917268275e+00 4.4278149584400266e+00 3.5868914050947667e+00 0 0 0
1484 1 6.5404342630227639e+00 1.7109157580171339e-01 2.1055821078155135e+00 0 0 0
558 1 1.0568830618555629e+00 1.8710283958786746e+00 2.0049272770582811e+00 0 0 0
1965 1 9.0168287440781114e+00 2.4045835556032200e+00 1.6764936163036461e+00 0 0 0
83 1 1.0971276268335994e+00 2.6191158692553924e+00 2.7173535586181798e+00 0 0 0
166 1 1.1643897660752418e+00 1.6357957113232131e+00 3.1364837947902089e+00 0 0 0
1376 1 2.0832863599957760e+00 1.8131867462434803e+00 2.6257337117121371e+00 0 1 0
3606 2 1.9163479418662508e+00 2.6672411893243586e+00 2.3073569376430383e+00 0 0 0
2941 1 2.8525326246544522e+00 2.7348549523937629e+00 2.3994243704748550e+00 1 0 0
3608 2 2.9388368277136974e+00 1.9757053832959051e+00 3.0314753808207433e+00 0 0 0
3128 1 2.1106976079326971e+00 2.6761015260191199e+00 3.2184497545974948e+00 1 0 0
555 1 2.9976179052838230e+00 1.7336251031003216e+00 2.1001892789322909e+00 0 0 0
505 1 4.1270107070292079e+00 2.7322516570598130e+00 1.7378629244331965e+00 0 0 0
663 1 3.7618271283522473e+00 2.2732231646526855e+00 2.6811843799585189e+00 0 0 0
3686 2 3.5396647461631039e+00 3.2862938616419486e+00 1.9449230398176816e+00 0 1 0
1446 1 4.6599977080583477e+00 2.9718703441605845e+00 2.5749236486898011e+00 0 0 0
568 1 4.7632623800259450e+00 1.9625412349279834e+00 2.4833879822044280e+00 0 0 0
3703 2 4.8846552078088132e+00 3.3153026431948542e+00 1.7325478669652021e+00 0 0 0
3533 2 5.6492788310753888e+00 1.7314134518076927e+00 2.6643780774648071e+00 0 1 0
1462 1 5.2585338908897956e+00 2.5860726477944245e+00 1.6033263335737220e+00 0 0 0
1511 1 5.6497009794770747e+00 2.6236730539749127e+00 2.6200836655277713e+00 0 0 0
1561 1 6.0504959679256238e+00 3.2741948439267161e+00 1.9396637864245416e+00 0 0 0
2197 1 6.5198603556879746e+00 1.9468356674917249e+00 2.6495065309397492e+00 0 1 0
566 1 6.3249663417624928e+00 2.3304822505558103e+00 1.7569046755316464e+00 0 0 0
1437 1 7.1465664248637175e+00 3.0041482559783415e+00 1.8369569210110830e+00 0 0 0
2101 1 7.3616360039660371e+00 1.9685052409313444e+00 2.0623954363074319e+00 0 0 1
3946 2 7.1184945933906540e+00 2.5412823889233573e+00 2.6917202504615250e+00 0 1 0
1721 1 6.4998566812457170e+00 3.0710682812262693e+00 2.9013235126614494e+00 0 1 0
2421 1 7.6206818562743344e+00 3.1138168407385032e+00 3.1222152043716820e+00 0 0 0
1457 1 8.9283962995431008e+00 4.7047971128910735e+00 3.0358005866372455e+00 0 0 0
3631 2 3.2483018196077964e+00 4.6786465901552559e+00 9.8737051490325412e-01 0 0 1
599 1 2.8863172708033993e+00 3.5756051846068027e-01 3.9007345562544717e+00 0 0 0
991 1 7.9422126892993319e+00 1.1012580330688115e+00 2.5164367694090264e+00 0 0 0
2145 1 9.2751325977019832e+00 3.2736867930168652e+00 3.3702439230570205e+00 0 0 0
1689 1 9.1853771098484547e+00 3.4875973534500866e+00 4.4023722367689455e+00 0 0 0
615 1 1.2347855859282590e+00 3.0209850198473385e+00 1.7567116960041884e+00 0 0 1
3793 2 7.0229457356306542e+00 3.9157335194941006e-01 1.2571178885750470e-01 0 1 0
2176 1 8.9260493029734569e+00 4.4970520917227669e-01 3.5465377056475669e+00 0 1 0
1098 1 7.8194407678167348e+00 2.6484296936390743e+00 7.5415108384509044e-02 0 0 1
4263 2 5.4156688660198986e+00 4.7956872813348257e+00 1.9310305763246285e+00 1 0 0
1682 1 7.0796442371607693e+00 3.8297120052028224e+00 3.6141925176477421e+00 0 0 0
1039 1 2.8953383237850163e+00 3.8496705698287896e+00 2.1759790557293166e+00 0 0 0
4238 2 1.7251385241007453e+00 3.8314783592675323e+00 1.7067233070648069e+00 1 0 0
3619 2 2.8022782793268632e+00 3.4578034970620077e+00 2.9726103191599362e+00 0 0 1
586 1 1.9209886035168704e+00 3.5336649076586544e+00 2.6073529695040274e+00 0 0 0
1022 1 2.5659041559577598e+00 4.2482119450583431e+00 3.2488759206682842e+00 0 0 -1
1160 1 8.0518168122666847e+00 1.3883964164065161e+00 1.4786362646382225e+00 0 0 0
1440 1 3.6570749885855198e+00 3.4203639097878691e+00 2.7670366379337388e+00 0 0 0
664 1 4.2491888641121056e+00 3.8358638324084264e+00 1.9707512146113431e+00 0 0 0
3040 1 2.8974265395673164e+00 4.3876469976023893e+00 1.5876622683092032e-01 1 0 0
3121 1 8.6445120022551816e+00 4.4415583046633369e+00 4.4064301366351772e+00 0 0 0
994 1 4.4250793049600734e+00 4.1694678042090043e+00 3.0980303157780509e+00 0 0 0
1428 1 6.0753161146337025e+00 4.3283746740209548e+00 1.5655860215829538e+00 0 0 0
1472 1 8.8086287818852949e+00 4.3180120076799309e+00 1.9957313022978251e+00 0 0 0
534 1 6.0757156077218806e+00 4.0028850551391173e+00 2.9954026331924868e+00 0 0 0
1271 1 5.2493921006606996e+00 3.9157969131558632e+00 2.3519845051381258e+00 0 1 0
952 1 7.9645264084440921e+00 2.3972412733724622e+00 1.2498171252456045e+00 0 0 0
3838 2 6.3580145968318886e+00 4.4533670745582024e+00 3.7581162401390569e+00 0 0 0
2946 1 8.2627720000118323e+00 5.3631919192561894e-01 7.5240438426217049e-01 0 0 0
1072 1 7.7729093981937121e+00 3.8845094075334776e+00 1.9368248535560786e+00 0 0 0
1535 1 6.8636868323711528e+00 3.9132278118440960e+00 2.3566644494874649e+00 0 0 0
3964 2 7.5165387810320752e+00 4.0384571423230318e+00 2.8889550120765435e+00 0 1 0
3127 1 2.6725340316229396e+00 3.4719348579141940e+00 3.9073446367438449e+00 1 0 0
3602 2 7.0776597871336691e+00 5.2354179882897012e-01 3.7816621772595407e+00 0 0 0
964 1 9.8710817994414874e+00 4.1649663942621320e+00 1.7103210128758499e+00 0 0 0
1425 1 8.3186910067930597e+00 3.4151189400053839e+00 3.8721355659137475e+00 0 1 0
574 1 3.1203550149602792e+00 4.0827619519156215e+00 4.5453019651565709e+00 0 0 0
3985 2 7.7851571540926061e+00 2.0239756480854496e-01 2.3879816579547812e+00 0 0 0
3460 2 8.4609612618175873e+00 2.8929787674829384e+00 3.2220762142794808e+00 -1 0 0
962 1 2.0757733834859784e+00 4.5266845839555803e+00 2.2785136123238323e+00 0 0 0
1906 1 6.4930297780068820e+00 7.5205582579636532e-01 4.4280401181193021e+00 0 1 0
1880 1 8.0150143959349123e+00 4.6763140921977495e+00 2.6051755808054873e+00 0 0 0
1073 1 6.3764941591816759e+00 1.9799255687690853e-01 3.3305422749560116e+00 0 0 0
3676 2 8.2784814433239386e+00 1.9345577135214203e+00 2.3155506695757291e+00 0 1 1
1651 1 7.6923783959265783e+00 1.9282132425049442e-01 3.2337154715489764e+00 0 0 1
1584 1 1.2004789298073872e+00 5.8121267797424181e-01 3.9944330902249905e+00 0 0 0
1818 1 5.4158513600418630e+00 1.2100583736461734e-01 3.0425546117553117e+00 0 1 1
652 1 2.2248268072827280e+00 9.9946673352443127e-01 4.3252842875272499e+00 0 0 0
970 1 5.0296717520358065e+00 4.5717018445108062e+00 4.8202571364729954e+00 0 0 0
4240 2 2.0028039576629997e+00 4.5861808201554828e+00 5.3895019544377787e-01 1 0 0
4264 2 3.4353336918241868e+00 3.1689815686793288e-01 3.2770957748609422e+00 1 0 1
1054 1 3.9010977568221574e+00 6.8146890571824903e-01 4.0629900747937846e+00 0 0 0
481 1 3.4438085600789665e+00 1.6397382565081728e+00 3.8032618953615365e+00 0 0 0
235 1 4.4565454535645657e+00 1.5564935245866769e+00 4.0202818915100194e+00 0 0 0
4242 2 9.6606468151250144e+00 1.6310852661863267e+00 1.6569026360666201e+00 0 0 1
3856 2 5.7877306333155394e+00 7.0582635786508241e-01 3.7921419391628159e+00 0 0 0
2360 1 5.5021895548891164e+00 1.3324022453573754e+00 4.3695285323936393e+00 0 1 0
30 1 5.5088642048683507e+00 4.3117632030364295e+00 3.8035680403238898e+00 0 0 0
21 1 1.6932653648878895e+00 1.7098244018405040e+00 8.0410457627388535e-02 0 0 0
1950 1 7.6802634020695519e+00 1.1859869140120174e+00 3.6336711727806863e+00 0 0 0
4029 2 6.9504224996745982e+00 1.4771057293262306e+00 4.2006497561225418e+00 0 1 0
580 1 6.5175432872189063e+00 1.2637741460520762e+00 3.5088420429686686e+00 0 0 0
878 1 7.5454176495743823e+00 5.6769683074358379e-01 4.5157451209271358e+00 0 1 0
1103 1 8.5288797823841094e+00 1.2129812037711671e+00 4.2735800470396867e+00 0 0 0
548 1 5.4220584279793602e+00 3.4753873556045614e+00 4.5480949302540674e+00 0 0 0
3588 2 1.9873718853980091e+00 3.6375163390155043e+00 3.4690257030085254e+00 0 0 0
550 1 3.5697210387552132e+00 4.5620262917881158e+00 2.6131152448475792e+00 0 0 0
1519 1 8.9309780685163425e+00 1.4176632053059617e+00 2.1490842936805672e+00 0 0 0
1711 1 8.6144228021360494e+00 3.5113114020854659e+00 3.6848678889286302e-01 0 1 0
559 1 2.0053907918949050e+00 4.2859940799452811e+00 4.2209227388781150e+00 0 0 0
2544 1 1.0705971600805158e+01 4.4655442500766114e+00 4.3930381967836789e+00 0 0 0
1018 1 1.3902495730862532e+00 4.4803407123306203e+00 1.2568776257401528e+00 0 0 0
3798 2 9.7836578485116270e+00 7.3473710814905913e-01 3.4872116573077774e+00 0 1 0
2108 1 6.4816187205711238e+00 3.8071548279160474e+00 4.5277605490554729e+00 0 0 0
288 1 1.0607165113151762e+00 2.6691897233292075e+00 3.7598514355666981e+00 0 1 0
2063 1 9.7038435451058689e+00 4.1061010917351419e+00 2.7869728808728023e+00 0 0 0
543 1 1.3987088116615545e+00 1.6740191091151018e+00 4.1332705060459682e+00 0 0 0
1165 1 2.4147840814712103e+00 1.7398127830291501e+00 3.6759346513037738e+00 0 0 0
802 1 2.0542000029443432e+00 2.6316399425723391e+00 4.1974517458022991e+00 0 1 0
572 1 3.1988233440103215e+00 2.7393085469151583e+00 3.4659709960198430e+00 0 0 0
1988 1 1.0272067200602786e+01 3.1639285218872204e+00 1.6785215388693118e+00 0 0 0
2631 1 1.0213389878752180e+01 3.2245336359297379e+00 2.8660363451870929e+00 0 0 0
3719 2 3.5231908045495928e+00 3.2869430562017850e+00 4.0890812969990940e+00 0 0 -1
4119 2 4.0764050706160173e+00 2.2215216257892640e+00 3.4780137922465153e+00 0 0 0
1007 1 3.9837615935905069e+00 2.4727269890989927e+00 4.2788563874457646e+00 0 0 0
2164 1 4.2276228764438244e+00 3.1602005260067028e+00 3.5353507104100905e+00 0 0 1
3884 2 4.7276771196031255e+00 2.9847106173415403e+00 4.3424144066345978e+00 0 0 1
1062 1 4.8714162989540419e+00 2.4066167244329004e+00 3.4345696862283646e+00 0 0 0
1194 1 5.9308649453344318e+00 2.1040583838285034e+00 3.5319449850536655e+00 0 1 0
814 1 5.3338726778493495e+00 2.4223501208312630e+00 4.4265301499776069e+00 0 1 0
1081 1 5.2385958337071923e+00 3.4243904432240457e+00 3.3747012627420290e+00 0 0 1
860 1 6.1401129826496437e+00 3.1310323107937652e+00 3.8386063398271060e+00 0 1 1
3688 2 2.1695550361579317e+00 3.5142930205005154e+00 4.5562274422723190e+00 0 1 0
1678 1 8.4358805645329529e+00 3.6786665558662470e+00 2.8902680810076946e+00 0 0 1
1071 1 6.4094845206279523e+00 2.1875358425728222e+00 4.5169945410669436e+00 0 0 -1
1573 1 7.0077688148769486e+00 2.3249349081841180e+00 3.5332509537494854e+00 0 0 0
537 1 7.1919748710327367e+00 2.9664427840880405e+00 4.2559967637916269e+00 0 0 0
1439 1 1.0698978648295530e+01 3.9237295985347740e+00 2.2788998521358104e+00 0 0 0
4041 2 8.1598660823219458e+00 4.2470308446401334e-01 3.9510753158703826e+00 0 1 0
2513 1 9.0018065277224526e+00 1.3697851688073968e+00 1.0073517870547521e+00 0 0 0
386 1 4.9255728643202961e+00 4.8592871736513815e-01 3.9278537884056601e+00 0 1 0
975 1 8.8772749178295136e+00 1.9885870586872552e+00 4.8227999801633024e+00 0 0 0
1122 1 9.6038801275397390e+00 1.7154188697299191e+00 6.4226791127531116e-02 0 0 0
232 1 1.3704110823215458e+00 3.4795674543472583e+00 4.2635008514019903e+00 0 0 0
3855 2 4.9905719239830837e-01 2.1169730654373714e-01 3.6383245706780247e+00 0 0 0
1117 1 3.8914871572186938e+00 3.9702557851974434e+00 1.6459317167754275e-01 0 0 1
3464 2 2.0630569732925417e+00 8.0562742390377251e-02 3.7269060400212672e+00 0 0 -1
1696 1 7.0276659225752649e+00 4.7290705513966849e+00 4.2403409542812405e+00 0 0 0
1402 1 5.2778299381477289e+00 1.0712167850700970e-01 1.2886133640210218e-01 0 1 1
1550 1 8.4774426725960730e+00 2.3827805059326462e-01 4.6852428781633950e+00 0 0 0
1526 1 3.9510037844507604e+00 3.3743475846557054e+00 4.7580363629158811e+00 0 0 0
3587 2 7.1223420292608131e+00 4.7801745795027157e+00 2.2169660079165907e+00 0 0 0
4056 2 1.0784293854248284e+01 3.7861087276277132e+00 3.1227291338642713e+00 0 0 0
1458 1 6.4797886063568582e+00 1.4209130649426634e-02 8.8275080225577662e-01 0 0 0
194 1 7.2336233918147741e-01 9.9355074374418567e-02 4.7846324778979152e+00 0 0 0
4177 2 4.5080515666065732e+00 1.7574705638925106e+00 4.8147635043697079e+00 0 1 0
1001 1 6.9783857751945870e+00 3.3277615716636952e+00 4.2850586653849186e-02 0 0 0
2522 1 1.0401332006680837e+01 4.6669214090313291e+00 6.6293807924600907e+00 0 0 0
370 1 2.0175760085914254e+00 9.2240965703777755e-01 8.3094546016689996e+00 0 1 0
186 1 4.5155656609625927e+00 4.2551727381060198e+00 8.3220720948628415e+00 0 0 0
1634 1 8.5813096522415826e+00 3.8652278291281617e+00 7.5349974580764663e+00 0 0 0
3598 2 5.0335937490705751e+00 2.2313056964339470e-01 6.6442512517256196e+00 0 0 0
733 1 4.3042679716720773e+00 3.0728791243671103e+00 9.6367686327834079e+00 0 1 -1
1581 1 1.0097906777934057e+01 4.8165597811710752e+00 7.7943887815893129e+00 0 0 0
1129 1 1.0247594781821268e+01 3.8214179855575314e+00 7.4943876324887695e+00 0 0 0
2340 1 8.8810496384867008e+00 9.4737967259629319e-01 9.6502094911613767e+00 0 1 0
1184 1 6.2635233663781777e+00 4.6082953557078312e+00 6.1570307346356472e+00 0 0 0
1676 1 6.0113134339613392e+00 2.9654331185484910e+00 5.3227469360063973e+00 0 0 0
706 1 1.0202230428579213e+00 4.9988156993233146e-01 5.9237198159360256e+00 0 0 0
842 1 2.0323590035093528e+00 1.4947134425794681e-01 5.2481156770465578e+00 0 1 0
1913 1 3.7664361694865383e+00 1.3750533152734281e+00 4.8398508458031753e+00 0 1 0
2084 1 8.3883161521373069e+00 4.5107067235098892e+00 9.6304704964722561e+00 0 0 0
913 1 2.4201628600278511e+00 1.5410505589225831e+00 6.3013914580929571e+00 0 1 0
3924 2 7.8183163658257095e+00 2.1642356436052831e-01 8.1506083489416969e+00 0 1 -2
3609 2 9.1986399344897052e+00 4.6404547224665045e+00 8.9609145754048196e+00 0 0 0
3611 2 4.0935071769319098e+00 6.0713196030492245e-01 5.4650455112511001e+00 0 0 1
3752 2 3.2097446825214746e+00 1.8057143579615276e+00 5.4540097734157849e+00 0 0 0
526 1 3.4530257200747649e+00 1.1010828370946131e+00 5.8124901229704404e+00 0 0 -1
1080 1 4.3442765918209396e+00 1.6144868108053332e+00 5.7665726803417590e+00 0 0 0
625 1 9.2090129621691097e-01 1.0192896280484627e+00 9.4451848503821108e+00 0 0 0
3546 2 1.0003290265979807e+01 3.2744846051256573e+00 5.8105825360676882e+00 0 1 0
581 1 1.0928474979037062e+00 3.2226762889777749e+00 9.5795624706521654e+00 0 0 -1
1498 1 4.2492892283892605e+00 6.5906426249993644e-01 6.3565212097996389e+00 0 0 0
1683 1 5.4507498267219434e+00 9.7345032055681691e-01 6.3143628805834187e+00 0 0 0
1199 1 5.3058176947678772e+00 1.7953531499171065e+00 5.3076475942989170e+00 0 1 0
4081 2 4.6026026597922511e+00 3.8059046710090789e+00 9.1806682070268941e+00 0 0 -1
3584 2 1.6743877163762790e+00 6.9075452010676885e-01 9.2476852492984367e+00 0 0 0
1349 1 6.4970542666666189e+00 9.3173419499933730e-01 5.9131953464909657e+00 0 1 0
889 1 6.9875246053749578e+00 1.3445299931289443e+00 5.0614806014594826e+00 0 1 0
2044 1 6.9023509599560668e+00 2.4641934673080371e-01 5.2517757550342168e+00 0 0 0
1654 1 7.2579806741417618e+00 1.6227033555116754e+00 6.0873346946936575e+00 0 0 0
1907 1 7.5370427807464546e+00 6.4166522053548958e-01 6.2784977988033797e+00 0 1 0
1099 1 2.7290614704387810e+00 4.2843502667561717e+00 6.3238779021302740e+00 0 0 0
4175 2 9.3835538503789273e+00 1.8248914229999691e+00 7.9748235073557288e+00 0 1 0
610 1 1.8446951268222025e+00 2.0163499729683867e+00 5.0482622017877201e+00 0 0 0
1955 1 8.5106661090437186e+00 4.1660241789167864e+00 6.5312352598704582e+00 0 0 0
538 1 6.0377301206745955e+00 1.1380590910839516e-01 6.4879953626286166e+00 0 0 -1
1128 1 5.6619291991818654e+00 7.5113168364316307e-01 5.1875120444278311e+00 0 0 1
3881 2 9.5894469661805459e+00 3.3028583781126719e+00 8.9192766578525760e+00 0 0 0
695 1 1.3388911642651693e+00 1.5896930622762484e+00 5.8666185156616217e+00 0 0 0
1407 1 9.5369235716318066e+00 2.4631525760689659e+00 8.7492392283420610e+00 0 1 0
2753 1 9.8221722185940905e+00 1.0656697762477885e+00 7.6874281794460622e+00 0 1 0
4302 2 1.2782571086229726e+00 2.3761092885153521e+00 5.5838836363182445e+00 1 1 0
1180 1 2.5957696694674994e+00 2.3766225800768428e+00 5.6620010690953402e+00 0 0 0
4231 2 4.5725127755491553e+00 4.6353934453755548e+00 6.7091785984451349e+00 1 0 0
4220 2 8.2856783114744168e+00 2.0962378114902838e+00 7.4146800396197232e+00 0 0 -1
675 1 2.3248520958191534e+00 3.2645897913173454e+00 6.1558147330256521e+00 0 0 0
676 1 1.7235018686922365e+00 3.0803790890032765e+00 5.1512377162720409e+00 0 0 0
1114 1 3.7156825191293068e+00 2.4290766147498961e+00 5.2920632420372966e+00 0 0 0
1187 1 4.3618850118741888e+00 2.5782205443551454e+00 6.1820584088975528e+00 0 0 0
659 1 3.3434694715061877e+00 3.1000724465607181e+00 6.1609568289917425e+00 0 0 0
3713 2 4.0875737571040993e+00 3.1725519519007879e+00 5.6417179355764624e+00 0 0 0
698 1 3.4495117459206313e+00 2.0498140316517635e+00 6.2504977686125915e+00 0 0 0
1177 1 4.7441245574582460e+00 2.7297109181406300e+00 5.1802187917641040e+00 0 0 0
1853 1 5.3478654529864045e+00 2.0316942174896182e+00 6.2863051100198613e+00 0 1 1
3123 1 5.2878808078389250e+00 3.0893694923471537e+00 6.1215743751700895e+00 1 0 0
3577 2 6.0359662522865811e+00 2.7079753563188924e+00 6.1373511725347782e+00 0 0 -1
2060 1 9.7156783214248073e+00 2.6090825470175432e+00 6.4726732555914062e+00 0 0 0
1647 1 6.2928482904949767e+00 1.9660320449922921e+00 5.6800719563186197e+00 0 0 0
1049 1 7.1612052934947474e+00 2.5478511676777877e+00 5.2037943347951909e+00 0 0 0
2196 1 7.8205919181933119e+00 3.3047438289158602e+00 5.7140334491212794e+00 0 1 -1
1153 1 6.8532385318267401e+00 2.7213391580947062e+00 6.3225028777853165e+00 0 0 0
1171 1 8.6547703901259645e+00 3.8551965864474922e+00 5.3358895408386395e+00 0 0 0
1491 1 3.1438075986231806e+00 3.5955102001146833e-01 4.9401634575403168e+00 0 0 -1
621 1 4.8489533612796283e+00 1.8119208954794264e-01 5.7113567942225796e+00 0 0 0
1188 1 7.6598117492658035e+00 4.5672577235374252e+00 8.9042165776770865e+00 0 0 0
227 1 3.7697340191721302e+00 3.6726909042306897e+00 8.8086141843372605e+00 0 0 0
2042 1 9.7538720203443088e+00 1.1025207127281036e+00 6.0532333283667530e+00 0 0 0
891 1 2.0440731667577716e+00 2.3399662046431241e-01 6.3441640178836369e+00 0 1 0
1133 1 1.2931168645115199e+00 3.4830581169248203e+00 6.0401798236527418e+00 0 0 0
3728 2 9.4911495003133464e+00 4.1563722541084731e+00 7.7601814370977991e+00 0 0 0
784 1 7.7195901563464027e+00 1.4138039474911308e+00 7.1167546885037236e+00 0 1 0
601 1 2.3614551738690093e+00 3.8820662317494419e+00 5.2769495025647650e+00 0 0 0
1093 1 3.5236761066702282e+00 3.8841267004686708e+00 5.5774789551163817e+00 0 0 0
3787 2 6.5967320169368673e+00 4.1505307655966437e+00 6.9061636645415687e+00 0 0 0
2088 1 4.8078398364047832e+00 3.6655846780479369e+00 5.3716478910634615e+00 0 0 0
127 1 4.3520414380817138e+00 3.6224544334042355e+00 6.3051378729293441e+00 0 0 0
3749 2 7.8885390285306745e+00 3.9700422820602985e+00 8.0877813175636621e+00 0 0 0
1085 1 5.8707681770279585e+00 4.0273084326668052e+00 5.3600443091803411e+00 0 0 0
3016 1 5.3060232452634679e+00 4.1530365351678817e+00 6.3368323078386348e+00 1 0 0
2546 1 9.3906626673352243e+00 4.5083650574047507e+00 6.9816211088773654e+00 0 0 -1
1030 1 6.8243648367179599e+00 3.5212489695181581e+00 5.5244648131597405e+00 0 0 0
3386 1 6.4733202562810521e-01 2.8385739344771127e-01 6.9509718725259777e+00 1 1 0
1115 1 7.2506525077907646e+00 4.0640026436723113e+00 6.3493072698317663e+00 0 0 0
1635 1 9.2004033885729264e+00 1.9224058502765577e+00 5.8190319447507335e+00 0 0 0
2161 1 9.3728233432800394e+00 3.4926381110221030e+00 6.9896528466587169e+00 0 0 0
1694 1 9.5402336125770244e+00 4.3781194573814055e+00 5.0589009080194796e+00 0 0 0
624 1 6.3802055766905603e+00 2.3532552081312574e+00 9.3251675715906703e+00 0 0 0
2900 1 9.9683309802641276e+00 1.7336255346668761e+00 6.9222431449856092e+00 0 1 0