LAMMPS data file via write_data, version 12 Dec 2018, timestep = 44880

4320 atoms
2 atom types

0.0000000000000000e+00 1.9309999999999999e+01 xlo xhi
0.0000000000000000e+00 1.9309999999999999e+01 ylo yhi
0.0000000000000000e+00 9.6549999999999994e+00 zlo zhi
1.3130799999999994e+00 0.0000000000000000e+00 0.0000000000000000e+00 xy xz yz

Masses

1 1
2 1

Atoms # atomic

597 1 3.6195622968308394e-01 6.5182381587904015e-01 3.1898783889540439e-01 0 0 0
237 1 2.4619162858422761e-01 9.5712718984707579e-01 1.2869645394945499e+00 0 0 0
4042 2 4.2861749054972336e+00 8.4733406979867620e-01 4.6413922589559222e+00 0 1 0
1218 1 1.2123714265521928e+00 7.3555561986443363e-01 9.9877402204252475e-01 0 1 0
3622 2 1.9907270698635378e+00 8.7345371091760282e-01 5.3472447615327401e-01 0 0 1
1870 1 9.4450150785981677e+00 1.5353455781967262e+00 5.1119965127756495e-01 0 1 1
967 1 1.4071257923874145e+00 1.5555157030525950e+00 4.0615623930450540e-01 0 0 0
3205 1 2.2872251797162697e+00 1.7864333072672853e+00 8.8023985455586606e-01 1 1 0
1906 1 7.7540112656997655e+00 4.5740152652702315e-01 4.7696823245090849e+00 0 1 0
851 1 2.9718520552245478e+00 1.0416114400948033e+00 5.5112083052200478e-01 0 1 0
253 1 3.5358620612685150e+00 3.8500830758109489e-01 1.1032597513546116e+00 0 1 0
1190 1 4.0058587690719536e+00 1.3213599182514821e+00 1.0302574203833699e+00 0 0 1
3918 2 3.7427764393630500e+00 1.5275205225190025e+00 2.1548217797936256e-01 0 1 0
4250 2 2.5227003348961303e+00 4.6918061518023082e+00 4.4663412492216397e+00 1 0 1
1127 1 4.0047768004571633e+00 6.7259544468265897e-01 1.9286023925087856e-01 0 0 1
1554 1 4.9798201829393323e+00 1.1050927387514644e+00 8.1860628802528812e-01 0 0 1
4116 2 4.4967048188806205e+00 6.2793388021697216e-01 1.4598804390220388e+00 1 0 -1
95 1 5.4081909304017266e+00 4.8658673474837455e-01 1.5272650494977942e+00 0 0 0
2174 1 5.7329559952461846e+00 3.4345408322355409e-01 4.8181291876292981e-01 0 1 0
4177 2 5.9698348355351500e+00 1.5139013459180510e+00 4.6826281143834656e+00 0 1 0
870 1 5.9196111048981139e+00 1.5634356278369159e+00 1.2708601277695373e+00 0 1 1
1798 1 6.5548959453982478e+00 9.4116085502867453e-01 8.7230568659809782e-01 0 1 0
1526 1 5.1797486667349792e+00 3.0966662471826458e+00 4.7042687246771875e+00 0 0 0
906 1 9.4980281037051597e+00 2.8022287727743111e+00 2.2559788596616728e+00 0 1 0
1615 1 7.5085121324482422e+00 1.5484489384525051e+00 9.7977128692104287e-01 0 0 1
1458 1 7.5486338722137782e+00 4.9332971594554842e-01 9.9549846890110438e-01 0 0 0
3793 2 8.1667448173744521e+00 6.6217115850454644e-01 3.3981106824254681e-01 0 1 0
767 1 8.6174188057656504e+00 7.0974321547571939e-01 1.0696574134274002e+00 0 1 0
1359 1 8.4134349223678520e+00 1.5603960068726801e+00 3.1987515621171375e-01 0 1 1
3468 2 8.7684448341706620e+00 1.5562532558518516e+00 1.0914355020248221e+00 -1 0 1
465 1 4.3677107959576311e-01 1.8957457268834583e+00 6.1712274604670658e-01 0 1 1
1402 1 6.7292749348960026e+00 1.6011538452742735e-01 1.8106945747800843e-01 0 1 1
657 1 3.8695740085628449e-01 3.0421145499509170e+00 5.5346450306147577e-01 0 0 1
708 1 7.3324769594288908e-01 2.6980493043074856e+00 1.5336826004975361e+00 0 0 1
1242 1 5.6726712442814931e+00 1.5156399561894776e+00 1.0575587935429699e-01 0 1 0
3478 2 1.0833499151357293e+00 2.4494147752347506e+00 7.0049101829603633e-01 0 0 -1
254 1 1.7557172616956427e+00 2.6358032309972215e+00 1.1802683367344897e+00 0 1 0
2960 1 1.1663156666676171e+00 1.7536470719307864e+00 1.4996101855984607e+00 1 0 0
2201 1 9.4551505241582081e+00 4.2504294343561009e+00 1.0746472582231215e+00 0 1 0
3599 2 2.2579155973679885e+00 3.4578368316739447e+00 6.9591518309878853e-01 0 0 0
622 1 2.8215639723901251e+00 2.7124798940853210e+00 7.0438469409563798e-01 0 0 1
3750 2 3.2110551025798890e+00 1.8945651170218067e+00 7.9336318004180240e-01 0 0 1
34 1 4.0374110991095833e+00 2.3847653150020602e+00 5.5318662115965767e-01 0 0 0
1065 1 3.4770327454853041e+00 2.4850157268528283e+00 1.4413615060352967e+00 0 0 0
968 1 5.1503304822963276e+00 2.3573116147206439e+00 5.3488669966858937e-01 0 0 1
3708 2 4.6483665042398581e+00 1.9184118382514537e+00 1.0582927598822005e+00 0 0 0
1166 1 4.5258974145482762e+00 2.9058854088513844e+00 1.3942780198576492e+00 0 0 1
3768 2 4.8378378976813501e+00 3.1671625295466255e+00 5.6510461256417022e-01 0 1 0
987 1 6.7357840289512607e+00 1.7897070161734232e+00 1.6198754207509811e-01 0 0 0
3757 2 6.7762103681951595e+00 1.8832044589815893e+00 1.0979577919538055e+00 0 0 1
1764 1 6.1559248375765669e+00 2.5037247825176348e+00 7.3145916721169646e-01 0 1 0
1617 1 7.3221329596261642e+00 2.5396481628981018e+00 8.0270257801710532e-01 0 0 1
1785 1 8.2353482776756088e+00 2.9559953697387764e-01 1.9750586931504857e+00 0 1 0
1499 1 8.3645932962401606e+00 2.3439079165207968e+00 9.4446525762625944e-01 0 0 1
1531 1 9.0786101212325310e+00 6.8224654987751865e-01 7.3909022064006152e-02 0 0 1
497 1 9.6692658200495019e-01 3.8190295452290943e+00 1.1779938805469636e+00 0 0 0
4263 2 6.8638129379988158e+00 4.5057657742370472e+00 2.1888553620018651e+00 1 0 0
3040 1 4.2226231736924271e+00 4.4588155791445319e+00 1.4645498663351522e-01 1 0 0
2076 1 9.2356410039953936e+00 2.0228830768775374e+00 2.9906457484005471e+00 0 0 1
1470 1 9.8290710965458654e+00 3.3054113267742151e+00 1.4518681088252516e+00 0 0 0
3085 1 1.4842531264042447e+00 3.3420640430895068e+00 3.4801639291009451e-01 1 0 1
3799 2 1.4558940803374856e+00 4.4462521886319477e+00 5.0942502083393415e-01 0 1 0
171 1 1.9412478719387714e+00 4.0915506092035612e+00 1.1092543807097193e+00 0 0 1
1625 1 3.7817856375220886e+00 4.6203696664797826e+00 4.7069082957028767e+00 0 0 0
3772 2 3.2619564924168984e+00 1.3280181706065231e-01 3.4527840730092452e-01 0 1 1
656 1 4.0525243564048719e+00 3.4392469753834916e+00 4.7830706154163816e-01 0 0 1
2996 1 3.7527863448015886e+00 4.5030805838649934e+00 1.1113437083088173e+00 1 0 0
717 1 3.0458584820976329e+00 3.7843676249857476e+00 6.9579747294727601e-01 0 0 1
3925 2 4.6962687878230314e-01 4.2596163964680880e+00 1.8042939077341944e+00 1 1 -1
668 1 3.6415574883389961e+00 3.5034526921290770e+00 1.5007829106806887e+00 0 0 0
124 1 5.9002576615099329e+00 3.6108700264381870e+00 4.1483907808151379e+00 0 0 0
3764 2 9.1555902495356438e+00 4.3747654270380354e-01 1.8755359369696525e+00 0 1 -1
1019 1 5.5555306712460952e+00 3.3687288401898603e+00 9.8606648934377950e-01 0 0 0
1198 1 4.6478865311253532e+00 3.9616442300182508e+00 1.1565881587253528e+00 0 1 0
3627 2 5.4660088442295631e+00 4.2079573024140577e+00 8.5605620181794728e-01 0 0 1
962 1 3.3330813695330934e+00 4.7781069426007052e+00 1.9764754212089926e+00 0 0 0
115 1 2.4589518955442049e+00 2.7930749956912382e-01 1.0033656069401513e+00 0 0 0
567 1 6.7622497989244428e+00 3.3651802466089800e+00 1.1051680173803471e+00 0 0 0
669 1 6.1774940220397188e+00 4.2310556617569848e+00 1.4057183754771676e+00 0 0 1
3865 2 6.9093249842504996e+00 4.3927928443158235e+00 7.9825951073519608e-01 0 0 0
1051 1 6.1986384856902133e+00 3.9407882289867406e+00 2.7096560606275732e-01 0 0 0
2098 1 7.2142188049726697e+00 3.7103393984622310e+00 2.0812735792798640e-01 0 0 1
1858 1 9.0184794594627995e+00 1.8106231139973668e+00 4.4548052767316086e+00 0 1 0
1513 1 7.7957591767508685e+00 4.5780081738883140e+00 8.1749960627315899e-01 0 0 0
503 1 8.9299704875137262e+00 3.3544889218375764e+00 8.8324947052262170e-01 0 0 0
1506 1 7.8067792179272280e+00 3.4287364547591981e+00 1.0913228621263338e+00 0 0 0
1564 1 8.6468137790251731e+00 4.1339646262496093e+00 2.3835704465829885e-01 0 0 1
1572 1 8.4189138920813686e+00 4.1463466287186552e+00 1.5974943759580897e+00 0 0 1
1191 1 5.9386232034696258e+00 4.6118722124418481e+00 3.7234079696125111e+00 0 0 0
2084 1 9.7096672088873976e+00 4.3561681510807224e+00 3.7831922906866773e-02 0 0 1
4278 2 9.9398096342663556e-01 4.7340808879448160e+00 3.9429125066268931e+00 1 1 -1
3495 2 3.0453638799516247e-01 1.7170084728915795e+00 1.6493518469861110e+00 0 0 2
140 1 1.0356999932123339e+00 8.2263400726499480e-01 2.0284424277635593e+00 0 0 0
135 1 5.3948363544099565e-01 1.5567017180008416e+00 2.4933629299529785e+00 0 0 1
520 1 1.9959269932642871e+00 1.0798798529016789e+00 1.6869083421635707e+00 0 0 0
3167 1 1.1009996161780711e+00 7.0406554441104852e-01 3.0609681323603479e+00 1 0 1
715 1 2.1337618581269644e+00 7.4852065387194822e-01 2.7657069975241275e+00 0 0 0
1651 1 8.7123832832992587e+00 1.7252241374556332e-01 3.3645604166351140e+00 0 0 1
1000 1 3.0239756843219623e+00 1.4902482719817607e+00 1.5406935786419647e+00 0 0 0
4214 2 2.6397495952773951e+00 1.4449323796522997e+00 2.3164590917500125e+00 1 0 0
817 1 2.8786302076785306e+00 3.8968129373116139e-01 2.0347271905157465e+00 0 1 0
159 1 3.7717600757479550e+00 9.1872677566642635e-01 1.9585981633257905e+00 0 0 0
992 1 3.2022177012035495e+00 1.1401426132936394e+00 2.8788897165878047e+00 0 0 0
966 1 3.7248951079878423e+00 2.0520058750613171e-01 2.7711975015691621e+00 0 0 0
1134 1 4.2331278970473871e+00 1.3798839357426949e+00 2.8691711281446524e+00 0 0 1
1040 1 4.9573607807712676e+00 1.3505603234794703e+00 1.7913082974706207e+00 0 0 0
1358 1 4.7108241717585111e+00 5.7723189507023787e-01 2.3649459580691850e+00 0 1 1
1783 1 5.6625373397264793e+00 2.0864567247718399e-01 2.7933295853477755e+00 0 1 0
3878 2 5.5513009840438476e+00 9.1433120409597757e-01 2.2755655174549827e+00 0 0 1
631 1 5.2169038366401148e+00 1.2484832824166887e+00 2.9739062933020182e+00 0 0 0
3756 2 7.2867754484203617e+00 8.0823320533089860e-01 1.6961589000159691e+00 0 0 1
1357 1 6.3686265006239102e+00 5.4110525452809322e-01 2.0183169617526078e+00 0 1 1
575 1 6.3765959158862175e+00 1.1472946098315466e+00 2.9397855331727096e+00 0 0 0
722 1 6.7932876176739461e+00 1.4771287662911896e+00 1.8817220281908298e+00 0 1 0
1147 1 7.3628727994923544e+00 8.8657600938765579e-01 2.6312296304540941e+00 0 0 1
1351 1 8.1157070488022001e+00 1.2917377199185367e+00 1.8210329169067152e+00 0 1 0
3775 2 8.2424562062725499e+00 7.3141802396922684e-01 2.8809795472051891e+00 0 1 0
1098 1 9.1432172734327928e+00 2.4650369727214123e+00 1.4830753124344068e-01 0 0 1
1880 1 9.3631981324309432e+00 4.5026788787829553e+00 2.8200617078094323e+00 0 0 0
3503 2 9.1365557978990086e+00 2.4655960340133056e+00 3.9282675365476245e+00 -1 0 2
3590 2 6.7166160059775901e+00 4.8131023719857886e+00 4.0866743011284594e+00 0 0 -1
3460 2 9.7711103533037793e+00 2.8223902731492760e+00 3.0966315681599843e+00 -1 0 0
4049 2 8.1585064164661691e-01 2.7927025720786793e+00 2.7168802120952731e+00 1 1 1
1622 1 9.1931260477340757e+00 3.9196608647750173e+00 3.8745994399662509e+00 0 0 0
431 1 1.5459024847519078e+00 1.5849573005255444e+00 2.4828855061211521e+00 0 1 1
558 1 2.4100929707590404e+00 2.2321470223973301e+00 1.9091000103065674e+00 0 0 0
2962 1 1.4925562896748641e+00 2.5768286837533498e+00 2.2092173302873603e+00 1 0 0
83 1 2.3935953929548117e+00 2.9838422417628512e+00 2.6385320024880285e+00 0 0 0
166 1 2.4212595612824326e+00 1.8672433511359157e+00 3.0879613478272683e+00 0 0 0
1376 1 3.2392312838089947e+00 2.1734023963035316e+00 2.5437968125193846e+00 0 1 0
3606 2 3.1543722442826114e+00 2.9809272272324017e+00 2.1365800836209576e+00 0 0 0
2941 1 4.0451351872045791e+00 3.0095027694830998e+00 2.3546920970838094e+00 1 0 0
3608 2 4.1294364107601487e+00 2.2921980735095877e+00 2.7881537198530202e+00 0 0 0
3128 1 3.3385140569192040e+00 3.0841705167024931e+00 3.2124078744677496e+00 1 0 0
555 1 4.2123025584627074e+00 2.0211077279080301e+00 1.9872022332285473e+00 0 0 0
505 1 5.4471920210748257e+00 2.4098881191769999e+00 1.5752997981745012e+00 0 0 0
663 1 5.0221936860787322e+00 2.2254404930655052e+00 2.6197085030286082e+00 0 0 0
3686 2 4.9606773723329400e+00 2.9254587273870341e+00 2.1229061808196308e+00 0 1 0
1446 1 5.8534631889379192e+00 2.8180833403826737e+00 2.5366376030878457e+00 0 0 0
568 1 5.8469520672388970e+00 1.7748724662073676e+00 2.2897389889408304e+00 0 0 0
3703 2 6.0223102632815806e+00 3.1421377302968865e+00 1.6496998729726828e+00 0 0 0
3533 2 7.4290180182453556e+00 1.8396888575640691e+00 2.5315224699157093e+00 0 1 0
1462 1 6.6029115576833783e+00 2.5265451433648978e+00 1.7137961578478318e+00 0 0 0
1511 1 6.7332963674302260e+00 2.3189620389841843e+00 2.7154619153112711e+00 0 0 0
1561 1 7.3676991614487024e+00 3.1358930591705612e+00 2.0724469941264636e+00 0 0 0
2197 1 8.2026779226698210e+00 1.5842860942808996e+00 2.8205480978348736e+00 0 1 0
566 1 7.7321157726829739e+00 2.2297073841157768e+00 1.7709384131815082e+00 0 0 0
1437 1 8.4963801665733829e+00 2.9583395465234559e+00 1.8554170773318892e+00 0 0 0
2101 1 8.7909864705108856e+00 1.9494916853010658e+00 2.0393427976912659e+00 0 0 1
3946 2 8.6687465609550856e+00 2.5984497555322559e+00 2.5973628975939866e+00 0 1 0
1721 1 7.7686141155092736e+00 2.5554403390011151e+00 2.8336264893006686e+00 0 1 0
2421 1 8.9372736016339154e+00 3.0573960171684225e+00 3.3172766590660685e+00 0 0 0
57 1 1.6799744022688849e+00 1.4850255172093005e+00 4.6711588846284817e+00 0 0 0
162 1 7.1370415342805971e-01 3.5265468744332411e+00 2.2384010982563916e+00 0 0 0
4240 2 3.3094709038821035e+00 4.6783387801341023e+00 4.1199691372185043e-01 1 0 0
991 1 9.0673476377620226e+00 9.0093950704233572e-01 2.5478431438600442e+00 0 0 0
492 1 1.0992215410053667e+00 4.3587861261275282e+00 3.1508464020887468e+00 0 0 0
2976 1 1.2562794214716955e+00 4.4703290175150423e+00 2.0089537633639543e+00 1 0 0
615 1 2.5548771647090454e+00 3.1860453786915404e+00 1.5416515421606189e+00 0 0 1
3028 1 1.6853131091938431e+00 3.5032061650574633e+00 1.9672399338502233e+00 1 0 0
3610 2 1.6895972217125352e+00 4.0789849722415505e+00 2.5698387039331143e+00 0 0 0
636 1 2.4256030023102286e+00 4.3203005987507348e+00 2.1513857371165477e+00 0 0 1
2965 1 1.4721239079386139e+00 3.3656961773410514e+00 3.1085223872006491e+00 1 0 0
1682 1 8.0615513125387128e+00 3.6317959858443785e+00 3.5926488369387224e+00 0 0 0
1039 1 4.3150617632239729e+00 4.0215290601715816e+00 2.1260064449449985e+00 0 0 0
4238 2 2.8794298749173324e+00 3.9829701703865528e+00 1.5134218864002502e+00 1 0 0
3619 2 3.9727323523933777e+00 3.6278114342233563e+00 3.0041664867804139e+00 0 0 1
586 1 3.2916227083202361e+00 3.8033889943096924e+00 2.4124089440713981e+00 0 0 0
1022 1 3.8979758070381139e+00 4.5412267301536957e+00 2.9771423605490166e+00 0 0 -1
1160 1 9.4064995945842025e+00 1.2511070596538467e+00 1.5423754970481498e+00 0 0 0
1440 1 4.8520559876451603e+00 3.4792960857926074e+00 2.8181272760710816e+00 0 0 0
664 1 5.4419248586542128e+00 3.7200039933874121e+00 2.0021101292454881e+00 0 0 0
550 1 5.0241811851191018e+00 4.4874968490628575e+00 2.9137761062742240e+00 0 0 0
2037 1 7.6868162305670005e+00 4.7305492565142977e+00 2.5215955544738375e+00 0 0 0
994 1 5.9300064021597318e+00 3.7312862766522210e+00 3.1369317729362352e+00 0 0 0
1428 1 7.3659904714831308e+00 4.1177253715186835e+00 1.6367725768420271e+00 0 0 0
508 1 6.7380249496659959e+00 4.4761337040460587e+00 3.0682850150531507e+00 0 0 0
534 1 7.1491829863185954e+00 3.3854563882997404e+00 3.0360262108913694e+00 0 0 0
1271 1 6.5046074947488179e+00 3.6597268351525996e+00 2.2004336728928524e+00 0 1 0
952 1 9.3609619522669547e+00 2.3303307486248896e+00 1.2235545406985684e+00 0 0 0
3838 2 7.5231508225636237e+00 4.2388330539758323e+00 3.1542261712596495e+00 0 0 0
1621 1 8.4134032578580644e+00 4.5497985018740783e+00 3.2776640962296946e+00 0 0 0
1072 1 9.1457771157009677e+00 3.7934101019596307e+00 2.1746025124982427e+00 0 0 0
1535 1 8.1969791129207543e+00 3.6064558547984333e+00 2.5372092779618720e+00 0 0 0
3964 2 8.8980210064055996e+00 3.8407157620250678e+00 3.0458736259477295e+00 0 1 0
3587 2 8.5186527850850453e+00 4.4823582454096673e+00 2.4013153270015888e+00 0 0 0
3121 1 9.9238596111079520e+00 4.0758436229196437e+00 4.5534111802604311e+00 0 0 0
4110 2 1.4930654589918965e-01 2.5776339422905398e-01 3.8236000308634761e+00 1 0 0
1425 1 9.8329620571238721e+00 3.0316688686062303e+00 3.9430798007993455e+00 0 1 0
689 1 9.6219297096264822e-01 8.7538856854075398e-01 4.1284399599083956e+00 0 0 0
4299 2 1.0363950171400640e+00 1.5650715935239439e+00 3.3059359171679668e+00 1 1 1
1818 1 6.6553412285139713e+00 3.8635996925577690e-02 2.8623816660701138e+00 0 1 1
17 1 1.6716972756721429e+00 2.8996158379398004e-02 1.7700884110569082e+00 0 0 0
194 1 1.9802105504756546e+00 5.4191240377330419e-01 4.5002509963240067e+00 0 0 0
3855 2 1.7387388072233292e+00 4.4678669973953300e-01 3.5781284387946912e+00 0 0 0
3192 1 1.7928717988553895e+00 1.3155661238005310e+00 3.7010162358623808e+00 1 0 0
3676 2 9.6598681453566417e+00 1.9364070713292763e+00 2.1830963204120066e+00 0 1 1
1029 1 7.3677955085150542e+00 1.0073042311865950e+00 8.7663447112261830e-02 0 0 0
1584 1 2.7839648458110120e+00 9.7638964879093515e-01 3.7981619651307055e+00 0 0 0
3464 2 3.5261941960311183e+00 6.2246821133574826e-01 3.5552742753112332e+00 0 0 -1
652 1 3.6487060449896895e+00 1.3531060774043642e+00 4.3323064483826670e+00 0 0 0
599 1 4.2034740501058510e+00 2.2182662893603766e-01 4.0025725704283905e+00 0 0 0
412 1 1.4774393343325953e-01 1.1220860943431874e+00 3.4051319296414984e+00 0 1 0
4264 2 4.4264524334755908e+00 6.3623551132870593e-01 3.2513005251823630e+00 1 0 1
1054 1 5.1666018280842900e+00 4.3881950509563972e-01 3.6653365795373407e+00 0 0 0
481 1 4.5649205957003760e+00 1.2965933389884974e+00 3.8295190681144504e+00 0 0 0
235 1 5.9148112577622411e+00 1.1251685710267099e+00 3.9354772427250193e+00 0 0 0
50 1 5.2750777143033414e+00 4.6741160300331401e+00 1.7053401403906892e+00 0 0 0
3856 2 6.9307332043101626e+00 7.4502677016515273e-01 3.4163541570436387e+00 0 0 0
2360 1 6.9469028593410753e+00 9.5609396151665627e-01 4.2690517218254582e+00 0 1 0
30 1 6.9692303528925725e+00 3.9215720119879265e+00 3.9482709449053459e+00 0 0 0
2108 1 7.7939347597598276e+00 3.6002707546209685e+00 4.6765833604105227e+00 0 0 0
1950 1 8.9092668444706629e+00 1.2210512419838899e+00 3.5572434425115840e+00 0 0 0
4029 2 8.2583651349887290e+00 1.1650205778235279e+00 4.3668343203528792e+00 0 1 0
580 1 7.8505693040928932e+00 9.0753928462301248e-01 3.6057688475782941e+00 0 0 0
878 1 8.7581045145359777e+00 4.6832301833613427e-01 4.4409511741144660e+00 0 1 0
970 1 6.3867847403171556e+00 4.4680867466159659e+00 4.7631437310226952e+00 0 0 0
986 1 1.8823873934150477e+00 4.0834805698964782e+00 4.7541103757216359e+00 0 0 0
905 1 3.5215266845525106e-01 2.3509683605461347e+00 3.3188898843256869e+00 0 1 0
2731 1 1.9935205038234532e-01 1.0846636099632154e-01 2.9672988864952599e+00 1 1 0
1117 1 5.1223352707447267e+00 3.8378118224307989e+00 1.6235150295772646e-01 0 0 1
2545 1 3.8822482524497370e-01 3.0020154788618107e+00 4.3124148084134948e+00 1 0 0
3490 2 1.0095141807785559e+00 2.9229792404396862e+00 3.7284437326059208e+00 0 0 0
2562 1 1.0102512103281409e+00 1.9935823866645872e+00 4.0727218903388644e+00 1 0 -1
3080 1 1.4120598394082695e+00 2.3383420992062161e+00 3.1957598005654395e+00 1 0 0
3480 2 1.9034616578878147e+00 2.1938077698341636e+00 3.9086295722878281e+00 0 0 0
700 1 1.6017922428431515e+00 2.9285329293973126e+00 4.3509954362459657e+00 0 0 0
288 1 2.4066651178174183e+00 2.8861782278477794e+00 3.6419318771972575e+00 0 1 0
4208 2 2.5118810071192086e+00 2.8852727978136032e+00 4.5222837931225168e+00 1 0 0
543 1 2.6972852496865514e+00 2.0117069978361344e+00 4.1428778270323372e+00 0 0 0
1165 1 3.5387014757808064e+00 2.0165371404078130e+00 3.5107447902772879e+00 0 0 0
802 1 3.3920776176651715e+00 2.8157362572018321e+00 4.2619465796946701e+00 0 1 0
572 1 4.3374448241778074e+00 2.8575542042188369e+00 3.5041616554701243e+00 0 0 0
1167 1 4.3887025689396051e+00 2.1737055575907465e+00 4.3385915872449665e+00 0 0 0
513 1 5.2616386811237650e+00 4.5753589978478093e+00 4.5943113673380598e+00 0 0 0
3719 2 4.4657414884334612e+00 3.1444080718992202e+00 4.2838373010893340e+00 0 0 -1
4119 2 4.7848973205194696e+00 2.1034553750677656e+00 3.4930574161646470e+00 0 0 0
1007 1 5.4016787025068833e+00 2.0215100193887112e+00 4.3119255097816831e+00 0 0 0
2164 1 5.3447784591869540e+00 2.8717571765929968e+00 3.5428519823344327e+00 0 0 1
3884 2 5.8812889252347951e+00 2.7836547611888558e+00 4.3064074162484571e+00 0 0 1
1062 1 5.8696028696810165e+00 1.9920254552762755e+00 3.3134648567571019e+00 0 0 0
1194 1 7.2213237767717429e+00 1.7525698788618114e+00 3.4408243979293158e+00 0 1 0
814 1 6.4670535691750652e+00 2.0276465274868198e+00 4.2192878352820644e+00 0 1 0
1081 1 6.3992396260902185e+00 2.8730797755569069e+00 3.6105698381537152e+00 0 0 1
860 1 7.4604543822809255e+00 2.8310072388692817e+00 3.9898497177838022e+00 0 1 1
655 1 6.0407095422896946e+00 4.6144751115271054e+00 2.4165140012388866e+00 0 0 1
2064 1 2.0342587893716351e+00 2.4135511719619229e+00 1.2335799280034643e-01 1 0 1
1071 1 7.6159560955385599e+00 1.9085616656622904e+00 4.5942231806431781e+00 0 0 -1
1573 1 8.2791882894285109e+00 2.2421691071781620e+00 3.7047586096485126e+00 0 0 0
537 1 8.6392728688882432e+00 3.0205767896906264e+00 4.2891329147665687e+00 0 0 0
536 1 3.4148848032625406e-01 3.3745512042899044e+00 3.2495698932846930e+00 0 0 0
4041 2 9.4933178886692229e+00 5.2343554156540872e-01 3.3467453954520634e+00 0 1 0
114 1 1.0347802050852799e+00 3.8077271448965959e+00 4.0887830315678126e+00 0 0 0
386 1 6.1834724206448888e+00 1.6953530844409889e-01 3.8034562102251761e+00 0 1 0
177 1 2.3949847602865013e+00 3.9005965247351986e+00 3.1795711536748352e+00 0 0 0
1696 1 8.4330782031442322e+00 4.4776854445490608e+00 4.3780335087113018e+00 0 0 0
232 1 2.7135288229676600e+00 3.6699869695510174e+00 4.2198059528141290e+00 0 0 0
779 1 1.8174510569651670e+00 4.5365278650364136e+00 3.8871440846882979e+00 0 0 0
4148 2 1.9082976707267980e+00 3.6249563189447689e+00 3.9022981514873436e+00 1 0 0
887 1 3.1185112192424089e+00 8.2528681840052673e-02 4.2531537153858618e+00 0 1 0
2946 1 9.5766583747693037e+00 4.5171698864384563e-01 8.8291112015611817e-01 0 0 0
3127 1 3.8841335270201141e+00 3.7824014984773613e+00 3.9345238069425079e+00 1 0 0
180 1 6.4618505727794762e-01 4.1588585281290280e+00 2.1871995814493420e-01 0 0 1
1001 1 8.1805593980687483e+00 3.1485829378783965e+00 1.2145887456526430e-01 0 0 0
559 1 3.2505341029234693e+00 4.6945910694807980e+00 3.8964962012074849e+00 0 0 0
3688 2 3.5540904253563661e+00 3.7349712759240847e+00 4.7756842020835739e+00 0 1 0
3588 2 3.2682662793440742e+00 4.0154175990279688e+00 3.3345855035063074e+00 0 0 0
1505 1 4.9272934205938972e+00 3.7899733546321981e+00 3.9005809075177744e+00 0 0 0
242 1 4.5779922917946303e+00 6.5530924167850932e-02 8.3902897287536626e-01 0 0 1
94 1 2.7668912744818415e+00 7.2379589895871121e-02 3.2620337335276930e+00 0 0 0
1042 1 2.4592331590219465e+00 4.4935819963846644e+00 1.9599666493160040e-01 0 0 0
691 1 4.4450520309615937e+00 4.7435269636510391e+00 3.8771320643408158e+00 0 0 0
3602 2 8.1255555968716600e+00 1.0526022044207692e-01 3.9676887398219169e+00 0 0 0
548 1 6.7068985747455772e+00 3.1286781788714313e+00 4.6341427122959482e+00 0 0 0
1491 1 5.0846519911633701e+00 1.1851250616647488e-01 4.6845777390281107e+00 0 0 -1
574 1 4.4811341412097434e+00 3.8598178376327694e+00 4.8125616935854501e+00 0 0 0
840 1 6.9174113056936926e-01 4.7932006566440251e+00 1.1136580278108916e+00 0 1 1
3844 2 1.9493139917734623e+00 4.7802282998038796e+00 1.5710895493998860e+00 0 0 0
1913 1 5.0628205539628874e+00 1.1830923462683611e+00 4.7491022676525771e+00 0 1 0
1018 1 2.6756004335460126e+00 4.8062608954404951e+00 1.1741986087158112e+00 0 0 0
3631 2 4.5622150837757873e+00 4.8260376862192302e+00 1.0132767255786073e+00 0 0 1
208 1 9.1789287219454230e-01 4.5925808158467190e+00 4.8515390586048852e+00 0 0 0
868 1 5.7940064329252872e-01 1.0190101912149574e+00 6.1736164298770868e+00 0 1 0
186 1 5.9358755388646554e+00 4.1592640101420706e+00 8.3007401046619407e+00 0 0 0
4031 2 2.0718976948636647e-01 2.2017789841421189e+00 4.9482520332571713e+00 1 1 0
3722 2 3.8060099389200506e+00 1.9026176555323981e-01 5.8730237567524819e+00 0 1 -1
2986 1 1.2496740419699324e+00 6.7629551165292523e-01 5.1922198857685027e+00 1 0 0
3545 2 2.0709576149113440e+00 9.8854895757104533e-01 5.4774086061278862e+00 0 1 0
199 1 1.5497986749718171e+00 6.8568194612704869e-01 6.2293897154261808e+00 0 0 0
4082 2 9.6184690875423939e+00 1.4489010305472314e+00 8.5036020625983841e+00 0 1 1
517 1 5.8307126006602328e+00 4.6838421109797652e+00 9.2908819919576988e+00 0 0 0
56 1 4.5730495088347425e+00 1.6847795695703491e+00 9.6230426862565110e+00 0 0 -1
706 1 2.9166596144283594e+00 6.0150956562410296e-01 5.9701191056748089e+00 0 0 0
869 1 3.2933043251524903e+00 4.8159911919265035e+00 8.2551477682820362e+00 0 1 0
3513 2 3.3085572504979055e+00 1.3025111326559653e+00 5.5609200126546536e+00 0 0 0
842 1 3.5782539230746999e+00 5.8945003403457874e-01 5.1014333420047535e+00 0 1 0
913 1 3.8266287772362775e+00 1.1487134459936388e+00 6.2330182395888816e+00 0 1 0
1069 1 4.1142296452400009e+00 1.4740463973804498e+00 5.2269591597625871e+00 0 0 0
275 1 4.3591927324607402e+00 3.1603377696202573e-01 6.5927244273090251e+00 0 1 0
3611 2 5.4271517150860680e+00 4.1371070401704213e-01 5.4077427718851743e+00 0 0 1
3752 2 4.8552547890229762e+00 1.4221009410458560e+00 5.7025931082363046e+00 0 0 0
526 1 4.5343758838867796e+00 5.8543292848593076e-01 5.6108574581381916e+00 0 0 -1
1080 1 5.2287766946194534e+00 9.0061569737881986e-01 6.3035381069353402e+00 0 0 0
914 1 4.3571337995344157e+00 1.3816648591626673e-01 8.9540342868161762e+00 0 1 0
1128 1 5.7674051458098186e+00 1.3978893021298493e+00 5.5654207318302378e+00 0 0 1
724 1 6.9006354153809344e+00 5.0231527483161842e-01 5.4228740679638960e+00 0 1 0
1498 1 6.0602663852540086e+00 3.8526426108147599e-01 6.0257053199679014e+00 0 0 0
1683 1 6.9299876558268663e+00 9.3842820032448671e-01 6.3823963708376832e+00 0 0 0
1199 1 6.7631776634282117e+00 1.5243220396129507e+00 5.1184225566236128e+00 0 1 0
4081 2 5.9659642306478027e+00 3.7730598375119127e+00 9.0955748674323562e+00 0 0 -1
4122 2 7.5266343980150525e+00 1.1950478063627257e+00 4.9933522353395317e+00 0 0 0
1349 1 7.8212747262397322e+00 8.0385086304493658e-01 5.8864037545965830e+00 0 1 0
889 1 8.4451320798361689e+00 1.3438339398019261e+00 5.1946557039331056e+00 0 1 0
2044 1 8.6500879024939401e+00 3.2546779583604124e-01 5.4028811866536000e+00 0 0 0
1654 1 8.5825719866190830e+00 1.4834636683689080e+00 6.2272605397107146e+00 0 0 0
1907 1 8.9706553030376295e+00 4.3944652381002502e-01 6.5039547920487752e+00 0 1 0
282 1 2.9565102367489970e-01 2.0274264124133969e+00 5.8526882749764333e+00 0 1 -1
581 1 2.4568288705498311e+00 3.5125159630091991e+00 9.4957092099594895e+00 0 0 -1
134 1 1.0979937108526217e+00 2.9201191797967279e+00 6.0765774162582620e+00 0 0 0
1644 1 8.9455694807208967e+00 3.6775634320282844e+00 4.9620606349936738e+00 0 0 0
3140 1 1.6090468226736745e+00 4.1674376164711537e+00 9.3767695359174112e+00 1 0 0
110 1 1.4599804386228679e+00 1.6511032094855052e+00 5.7356581568403895e+00 0 0 -1
26 1 1.1118644177539119e+00 2.4201808055142835e+00 5.1411690443632310e+00 0 0 0
695 1 2.5644973067510768e+00 1.6311577075370349e+00 5.8931557182888774e+00 0 0 0
602 1 2.1904613731562912e+00 2.2824482722500865e+00 5.1217630458396730e+00 0 0 0
2586 1 2.0000222486059487e+00 2.4992375044703818e+00 6.1815810168420722e+00 1 0 0
4302 2 2.8179566551165789e+00 2.4549085907133148e+00 5.7955546903809640e+00 1 1 0
1180 1 3.8256110608660232e+00 2.1478698237848501e+00 6.0335148619996870e+00 0 0 0
1482 1 4.0712987125559543e+00 2.9737978726399179e+00 5.0796098623279375e+00 0 0 0
4220 2 9.5798764651548680e+00 1.9057953236798693e+00 7.3543980853134974e+00 0 0 -1
675 1 3.4874188028495636e+00 3.1409038947628591e+00 6.1414375995172872e+00 0 0 0
676 1 3.0258860217947561e+00 3.1707657743219770e+00 5.1707728417108472e+00 0 0 0
1114 1 4.9149263736043407e+00 2.2018114325125144e+00 5.3113947504060306e+00 0 0 0
1187 1 5.6189707603933527e+00 2.2977189203828376e+00 6.0786433451421091e+00 0 0 0
659 1 4.5821669305175394e+00 2.8515801622679802e+00 6.0214192566646698e+00 0 0 0
3713 2 5.4025681958895557e+00 3.0528081624296810e+00 5.5926958802815454e+00 0 0 0
698 1 4.6856617123414948e+00 1.8834968717003724e+00 6.3786322895308887e+00 0 0 0
1177 1 5.9252257165513385e+00 2.4617938083479474e+00 5.0824507996597381e+00 0 0 0
1853 1 6.6014532724725550e+00 1.8937362030780953e+00 6.0845869026978052e+00 0 1 1
3123 1 6.5063158747769876e+00 2.9163813553358247e+00 5.9170858657738901e+00 1 0 0
3577 2 7.3204076014322741e+00 2.4364764110232207e+00 6.1756026219641473e+00 0 0 -1
1676 1 7.4328121806862226e+00 2.7690636749250475e+00 5.3051106079166983e+00 0 0 0
1647 1 7.6182960729814297e+00 1.8561648588773048e+00 5.6784527357308017e+00 0 0 0
1049 1 8.4275510238954059e+00 2.5551531519460329e+00 5.1834757688801041e+00 0 0 0
2196 1 9.0407999538846386e+00 3.1019432696457221e+00 5.9521413840489332e+00 0 1 -1
1153 1 8.1872395855715041e+00 2.7016007268427420e+00 6.4000337671732961e+00 0 0 0
592 1 1.6983762932556776e+00 1.8304596934322670e-01 8.6002254412298100e+00 0 0 -1
2590 1 5.8745977356590273e-01 4.2123191502876276e+00 5.9100378358510666e+00 1 0 0
2453 1 1.0006644032423115e+00 3.5765674320567444e+00 5.1337594573163363e+00 1 0 0
1188 1 9.0292664867457688e+00 4.3458657321640466e+00 8.9296481918709905e+00 0 0 0
227 1 5.0610746210542379e+00 3.7816962743371008e+00 8.6969625339095114e+00 0 0 0
1079 1 1.9900566685407113e+00 3.2641974287024458e+00 5.3864499329535587e+00 0 0 0
223 1 1.6325284257018939e+00 4.1138953596842152e+00 5.8400631672139811e+00 0 0 0
1133 1 2.6742960336860611e+00 3.7205875487747027e+00 5.9867950684651507e+00 0 0 0
153 1 2.8550236705601084e+00 4.2505886803360644e+00 5.1060244053310173e+00 0 0 1
784 1 9.0455418873663689e+00 1.3034357722964112e+00 7.1431339899381747e+00 0 1 0
601 1 3.7078537005178531e+00 4.0929657715491876e+00 5.7209539210169940e+00 0 0 0
1093 1 4.8257166048664590e+00 3.9244684152222318e+00 5.7769576743722828e+00 0 0 0
1057 1 5.7103189788913076e+00 4.6629267703648782e+00 5.5676044311598689e+00 0 0 0
2088 1 5.9400553362161395e+00 3.6390138020121214e+00 5.2835345167244965e+00 0 0 0
127 1 5.6254235531906422e+00 3.4473987448587780e+00 6.3517879515673332e+00 0 0 0
3749 2 9.1847457882653867e+00 3.8411037489419564e+00 8.2044109862618839e+00 0 0 0