LAMMPS data file via write_data, version 12 Dec 2018, timestep = 410520

4320 atoms
2 atom types

0.0000000000000000e+00 1.9309999999999999e+01 xlo xhi
0.0000000000000000e+00 1.9309999999999999e+01 ylo yhi
0.0000000000000000e+00 9.6549999999999994e+00 zlo zhi
-7.2991800000000033e+00 0.0000000000000000e+00 0.0000000000000000e+00 xy xz yz

Masses

1 1
2 1

Atoms # atomic

3918 2 1.0847450544004296e+00 9.6420128253995629e-01 6.9657926917617463e-02 1 1 0
2159 1 7.7881915234855734e+00 4.1057216393449671e+00 4.0360751934965142e+00 0 0 0
976 1 3.8273838791287944e+00 3.0951820457721108e-01 4.4525380178593563e+00 0 0 0
818 1 3.5514245681504886e-01 4.6480308002515613e-01 2.0640102655525325e-01 1 1 0
1621 1 5.2692310241829299e+00 4.5509737425986057e+00 3.1593211851668559e+00 0 0 0
1870 1 6.1687382042598857e+00 1.6535981318661253e+00 3.9146845478101300e-01 1 1 1
4041 2 6.0319721825159522e+00 4.8230189591803591e-01 3.9874162574309748e+00 1 1 0
1493 1 8.6985229711209637e+00 1.7317399620888960e+00 3.9147412286227752e+00 0 0 0
1544 1 7.0055619622647889e+00 2.4008174235396256e+00 5.2707609963254831e-01 0 0 0
3635 2 7.2134649097934345e+00 1.0629829004083513e+00 4.5591014141716562e+00 0 0 1
3500 2 9.0813079818864448e+00 5.9523911134386354e-01 4.3557815031218539e+00 0 0 1
2754 1 7.8854736255365143e+00 2.1105321517097522e-01 3.3561422824977369e+00 1 1 0
3688 2 4.5590888367802851e-01 3.8087835672563091e+00 4.6748606933155319e+00 1 1 0
2278 1 9.4290729250799021e+00 3.3597244016301564e-01 4.4189871387657587e-01 1 1 1
1127 1 1.3102226949561055e+00 3.7871152957051846e-01 6.7837201792920498e-01 0 0 1
1554 1 2.1576448232989938e+00 1.0999621934395669e+00 9.2707131050950342e-01 0 0 1
4042 2 9.2801633344239964e-01 1.2061427151181661e+00 3.9803746893239920e+00 1 1 0
95 1 2.9285927173999475e+00 3.4621871583999586e-01 1.2821550476709935e+00 0 0 0
2838 1 8.4597938762056444e+00 2.2387608536786414e-02 4.1018230832432295e-01 1 1 1
717 1 -1.4780140866408065e-01 3.6410639621292233e+00 7.4650755037460570e-01 0 0 1
870 1 2.8211741631281311e+00 1.6994380476637023e+00 1.3974258809089009e+00 1 1 1
1798 1 3.1732375440175726e+00 1.1280909295793606e+00 5.2677328042639127e-01 1 1 0
2689 1 7.1169951384893011e+00 2.2371516331334833e+00 2.6846107592211474e+00 0 0 0
906 1 6.4537762585912448e+00 2.8843647752437942e+00 2.2135156007689170e+00 1 1 0
1615 1 4.2242063890723438e+00 1.4237289690084638e+00 8.9534527027311384e-01 0 0 1
3750 2 -6.6503154887434190e-02 1.6915024464705153e+00 1.0657529606451173e+00 0 0 1
1357 1 3.9805342902877694e+00 5.9641616837856548e-01 1.8567293652920744e+00 1 1 1
767 1 5.3198009817795020e+00 1.6215978968989722e+00 1.0710243628661180e+00 1 1 0
586 1 3.2659574787687196e-01 3.5760533306195623e+00 2.5352851723134320e+00 0 0 0
3468 2 5.2900859752049998e+00 2.7103455007822590e+00 1.0964255279297934e+00 -1 0 1
2132 1 7.6121823873343981e+00 1.5145566667879595e+00 3.7272396334400328e+00 0 0 0
4208 2 -5.8970255715978714e-01 3.0268242465775277e+00 4.5018733909322410e+00 1 0 0
1671 1 7.3206627143995178e+00 4.1625931653952088e+00 8.9757363421645697e-01 0 0 1
3771 2 6.8838240441788754e+00 3.8005418372538307e+00 3.7646986980561801e+00 1 1 -1
3587 2 5.4233369537961647e+00 4.6369393260586076e+00 2.2703117757145854e+00 0 0 0
4063 2 7.2533573776863509e+00 9.6564141352254018e-01 3.0797050913279236e+00 1 1 1
574 1 1.2600023189194343e+00 4.1743700876945402e+00 4.5973044529386344e+00 0 0 0
1165 1 4.9801603528897076e-01 1.9092487742147011e+00 3.7013913847375268e+00 0 0 0
2201 1 6.2831997102652837e+00 4.3517957911062712e+00 9.6881426740428467e-01 1 1 0
1359 1 4.9188773170420887e+00 1.0203089802210081e+00 2.6698906697758823e-01 1 1 1
1499 1 5.1707468014161391e+00 2.2942086577635799e+00 2.6048832019640128e-01 0 0 1
537 1 5.1515591629024016e+00 2.8479560944431492e+00 4.4180747488809420e+00 0 0 0
34 1 8.2378489877501371e-01 2.4200596646410939e+00 6.2140598784989987e-01 0 0 0
1073 1 4.4293655826791305e+00 1.8462929367708075e-01 3.5557591027705802e+00 0 0 0
968 1 1.9986019054243003e+00 2.4558168363922173e+00 7.0628532333756777e-01 0 0 1
3708 2 1.3886983500106493e+00 1.7585665576891993e+00 8.5847910377873227e-01 0 0 0
1166 1 1.4148508350865359e+00 3.0833333268420153e+00 1.3776018656072102e+00 0 0 1
3768 2 1.8188031357578631e+00 3.2642405164273951e+00 5.6393959222723467e-01 1 1 0
2631 1 8.3122716762215436e+00 3.3536255127243462e+00 2.7692206221521500e+00 0 0 0
3757 2 3.5766289461437184e+00 1.9422770144538599e+00 9.1074880865983121e-01 0 0 1
1764 1 3.0666457883240801e+00 2.6446135610029309e+00 6.9887826186474655e-01 1 1 0
1617 1 4.1886697629140581e+00 2.6014360665049701e+00 5.7668717885849052e-01 0 0 1
1785 1 5.1509541300847195e+00 5.6009609740101685e-01 2.9284771074750808e+00 1 1 0
2850 1 8.0137495256615825e+00 2.2945000610124664e+00 2.0707570372874309e+00 1 1 0
1117 1 1.9690925203884033e+00 4.0166671655740256e+00 1.5278829691018234e-01 0 0 1
1505 1 1.7431291922378460e+00 4.0480628532429739e+00 3.7341401299054282e+00 0 0 0
1667 1 7.7974567791431761e+00 7.2525669408839932e-01 1.7476996078465878e+00 0 0 1
4116 2 1.9269602055391386e+00 2.5110116977572505e-01 1.2479058326831058e+00 1 0 -1
2076 1 6.0406899767462381e+00 2.1923943988481538e+00 2.9588185373083213e+00 0 0 1
1573 1 4.9860728304255613e+00 2.0962331855056480e+00 3.6143318007305334e+00 0 0 0
1071 1 4.3447728870602500e+00 2.1022402162586724e+00 4.5046452626049893e+00 0 0 -1
1897 1 6.3027462329532336e+00 4.1692501174471153e-01 1.9207956618186368e+00 1 1 1
1029 1 3.9300814898111511e+00 4.3492819676215655e-01 8.1316465405596006e-01 0 0 0
1358 1 2.0827293011032908e+00 9.3833336517680521e-01 1.9501257257752243e+00 1 1 1
1678 1 6.6926852832420565e+00 3.8365739939408980e+00 2.8383802488270851e+00 0 0 1
1489 1 8.1043158999323950e+00 2.3446233578729081e+00 3.2762961259124719e+00 0 0 0
860 1 4.2514082106648274e+00 3.1338419200227556e+00 4.0152163481232588e+00 1 1 1
4263 2 3.7953807618912956e+00 4.7775288902129232e+00 2.0406139973652371e+00 1 0 0
1538 1 6.6315718485105997e+00 1.4280974169571918e+00 3.3527920014685697e+00 0 0 0
1081 1 3.2553284794238806e+00 3.3788106855921853e+00 3.4825350580081049e+00 0 0 1
124 1 2.7162084233050572e+00 4.0752787936559960e+00 4.1582433083915307e+00 0 0 0
3764 2 5.6580721801878715e+00 9.9105146028327085e-01 1.6710260991313441e+00 1 1 -1
1019 1 2.6246295017834118e+00 3.5557530456491251e+00 8.5863868948894229e-01 0 0 0
1198 1 1.6564686305105898e+00 3.9846977145830023e+00 1.0929859376263003e+00 1 1 0
3627 2 2.5717131858584423e+00 4.4181538544345695e+00 6.6525796801181691e-01 0 0 1
814 1 3.3334820058439583e+00 2.4779236159924882e+00 4.2601995713852858e+00 1 1 0
1194 1 3.9843949845307520e+00 1.9791248202443636e+00 3.4967753862224256e+00 1 1 0
567 1 3.6929368586054250e+00 3.4424142416803107e+00 1.0318157321264585e+00 0 0 0
669 1 3.1388059748348596e+00 4.3217094680326058e+00 1.3307813472466428e+00 0 0 1
1062 1 2.9273924958666826e+00 2.2503183551888983e+00 3.3101745899590620e+00 0 0 0
1051 1 3.1821745580563929e+00 4.0958824628974924e+00 2.1590588442159939e-01 0 0 0
3884 2 2.8097759929909349e+00 3.2069065158047434e+00 4.3339799881453329e+00 0 0 1
1858 1 6.0100635540686431e+00 2.1661767196606339e+00 4.0765924641712665e+00 1 1 0
2164 1 2.2743782255732770e+00 3.0879089586105750e+00 3.6270057510231815e+00 0 0 1
503 1 5.7194679698119080e+00 3.4303221810474782e+00 6.3480119042375382e-01 0 0 0
1506 1 4.7380407602441608e+00 3.4595996599126466e+00 9.3248356801348653e-01 0 0 0
1564 1 5.4765399661302574e+00 4.3435771903879790e+00 1.8988953587400584e-01 0 0 1
1572 1 5.2882197724650641e+00 4.2595196446420429e+00 1.2899999905687372e+00 0 0 1
1818 1 3.3450401048925569e+00 1.9627556642849522e-01 3.2057692383317398e+00 1 1 1
253 1 3.7424325182595236e-01 3.0567548541229672e-01 1.4562571976386114e+00 1 1 0
1007 1 2.2561030149443648e+00 2.3787168523163724e+00 4.4259385017115198e+00 0 0 0
1470 1 6.5771813095508662e+00 3.4056690274961126e+00 1.3486074157885271e+00 0 0 0
1167 1 1.1947586049643526e+00 2.2578095002302767e+00 4.4029085543903479e+00 0 0 0
1485 1 7.9658762027300218e+00 1.2353248809697424e+00 2.6847369089199797e+00 0 0 0
4119 2 2.0750000259883903e+00 2.2751977592089214e+00 3.5988383929911105e+00 0 0 0
3719 2 1.5570105649735020e+00 3.1121993103238292e+00 4.1437260365398352e+00 0 0 -1
572 1 1.3424168967219094e+00 2.7304441252911951e+00 3.4469578412567103e+00 0 0 0
2250 1 7.0392522101629131e+00 2.3846835553963937e+00 3.7055025989480632e+00 1 1 0
2145 1 7.4024746078759849e+00 3.2530335960524570e+00 3.3172899726566607e+00 0 0 0
975 1 6.9335215613203776e+00 2.0570442049107278e+00 4.6777689259762329e+00 0 0 0
1689 1 7.2483029613760719e+00 3.2149206378144894e+00 4.3140636830520327e+00 0 0 0
159 1 1.2361685109504807e+00 4.5391088132795604e-01 2.2554544796352833e+00 0 0 0
1042 1 -7.2253482335832320e-01 4.4756947562025999e+00 2.2439043945634279e-01 0 0 0
559 1 3.1431051148472466e-01 4.5304799736985997e+00 4.0685016050293124e+00 0 0 0
1134 1 1.2170691159304248e+00 1.5222823362006104e+00 2.4682819993968210e+00 0 0 1
1040 1 1.7923934854670986e+00 1.9592330071758364e+00 1.6511707887411105e+00 0 0 0
2513 1 7.2985708579395627e+00 1.3941924645059443e+00 8.8377061285324732e-01 0 0 0
1783 1 3.1363422997361812e+00 9.8768725160653303e-01 2.2131956644253914e+00 1 1 0
3878 2 3.4281373815895333e+00 1.0621108372087429e+00 1.3726706038763832e+00 0 0 1
631 1 2.2662201964145763e+00 1.4225310310384833e+00 2.9038188971014312e+00 0 0 0
3756 2 4.6350752218496298e+00 5.5651253121352628e-01 1.2554259678005346e+00 0 0 1
1122 1 7.7484860327611242e+00 1.8139764237530187e+00 3.5848933087452274e-02 0 0 0
575 1 3.2301114674474403e+00 1.2460835659515375e+00 3.2145317202661796e+00 0 0 0
722 1 3.8906129398705183e+00 1.5685245375969719e+00 1.8567108741371274e+00 1 1 0
1147 1 4.2113032781642001e+00 1.1219694677724499e+00 2.8582190774203324e+00 0 0 1
1351 1 4.9072618185137458e+00 1.2084718921908224e+00 2.0125532992006052e+00 1 1 0
3775 2 5.0333379101052182e+00 1.4416450831271632e+00 3.0886047025610677e+00 1 1 0
3097 1 7.1614520386250078e+00 2.4993403292871388e-01 2.5010426742095166e+00 0 0 1
1472 1 7.0467804257795637e+00 4.3718733716063554e+00 1.9017691151082197e+00 0 0 0
3503 2 5.5189045625645763e+00 2.7724036311037019e+00 3.5790924598255125e+00 -1 0 2
3799 2 -1.4104482683504052e+00 4.0182776794933828e+00 4.4800761116817306e-01 1 1 0
1065 1 5.0961805265844806e-01 2.1787586442031737e+00 1.5899079433444199e+00 0 0 0
1711 1 6.6948530336197845e+00 3.5451064893562365e+00 2.7013735471328565e-01 1 1 0
1622 1 6.1140499640160018e+00 4.2185269623432289e+00 3.6248448270936602e+00 0 0 0
1855 1 5.5585394833750668e+00 5.1858149052959834e-01 9.7224731862672986e-01 1 1 1
1471 1 8.1079270334281528e+00 7.8736112503279432e-01 4.2342748973163848e+00 0 0 0
1965 1 7.0923632783034858e+00 2.1511841792622848e+00 1.5683157569512260e+00 0 0 0
1455 1 6.1697248493029013e+00 3.2762524839202672e-01 3.0914436685508773e+00 0 0 0
636 1 -6.7110379046195012e-01 4.1072307659674516e+00 2.2029546154056456e+00 0 0 1
1519 1 7.0051925868321216e+00 1.2876831643340474e+00 2.2045619665246674e+00 0 0 0
2646 1 9.0021681767614830e+00 1.6232212141413644e+00 2.6931182346946567e+00 0 0 1
2941 1 1.0355104883171995e+00 2.6894249348935855e+00 2.3276310972321297e+00 1 0 0
3608 2 9.2994920546951043e-01 2.1027849202204663e+00 3.0204482477251551e+00 0 0 0
987 1 3.5732934100148661e+00 1.8921703240285845e+00 1.7271581144068196e-02 0 0 0
555 1 1.1436731187086520e+00 1.0713324190123263e+00 1.4726681872146956e+00 0 0 0
505 1 2.5267950336663860e+00 2.7325406686678946e+00 1.5905268862625217e+00 0 0 0
663 1 1.9490277971555643e+00 2.3833288449996277e+00 2.7113891794933123e+00 0 0 0
3686 2 1.9620690578099180e+00 3.0618328510858821e+00 2.1334341990858299e+00 1 1 0
1446 1 2.7831324791127749e+00 3.1796787249666423e+00 2.6175595574229211e+00 0 0 0
568 1 2.8942346293075429e+00 2.1053258639962884e+00 2.3194501528391882e+00 0 0 0
3703 2 3.2349786109524388e+00 3.3566359579734533e+00 1.6974490688496455e+00 0 0 0
3533 2 3.5840819604602374e+00 1.8251712965705673e+00 2.7122923619138986e+00 1 1 0
1462 1 3.5870341186865886e+00 2.6050803671741964e+00 1.6016439045118993e+00 0 0 0
1511 1 3.7078455280889280e+00 2.7168163363090172e+00 2.7678901981564805e+00 0 0 0
1561 1 4.2337629975945870e+00 3.2930154897728792e+00 2.0731430188288966e+00 0 0 0
2197 1 4.6906075102440976e+00 2.0886912949903538e+00 2.6271167252809930e+00 1 1 0
566 1 4.6565037250086529e+00 2.3548119431853327e+00 1.4401184290826079e+00 0 0 0
1437 1 5.5064714460225721e+00 3.2290021527386537e+00 1.6919134416083534e+00 0 0 0
2101 1 5.6311546769868990e+00 2.2351056994508713e+00 1.9702111379956671e+00 0 0 1
3946 2 4.9241254207776599e+00 2.7998993900245885e+00 2.2355558631493651e+00 1 1 0
1721 1 4.6459440297551131e+00 3.0212865607963471e+00 3.0920152012101658e+00 1 1 0
2421 1 5.7278794252372425e+00 3.1797495160569946e+00 2.8894257162473620e+00 0 0 0
2098 1 4.1942460182660728e+00 3.9903419532649891e+00 1.9014112633812921e-01 0 0 1
1103 1 6.3563463730996617e+00 1.2658809965223203e+00 4.3858032996503287e+00 0 0 0
599 1 5.5641435273475515e-01 9.6681994418832218e-01 2.9890227798023492e+00 0 0 0
991 1 5.9293371427670509e+00 1.2506124250607660e+00 2.4709429447015685e+00 0 0 0
1526 1 2.0692167548542280e+00 3.4021174629055162e+00 4.7325038763689902e+00 0 0 0
1380 1 5.1475851002961015e+00 1.4658047864912410e-01 1.9505169205498050e+00 1 1 1
1190 1 6.1984054269620070e-01 1.3995407297038558e+00 6.1499087467419566e-01 0 0 1
3610 2 -1.4243736415560224e+00 3.9371263759765029e+00 2.8400987269069504e+00 0 0 0
2176 1 6.9910637052608999e+00 5.5574097903254482e-01 3.8401278107238972e+00 1 1 0
878 1 5.3885465220291886e+00 6.5452775914864514e-01 4.5562324290502909e+00 1 1 0
2468 1 7.5800008821098235e+00 3.0617789221738825e+00 1.0572207928393385e+00 0 0 0
1682 1 5.2100757537941726e+00 3.6052831392117404e+00 3.7080187934531805e+00 0 0 0
3865 2 3.7663997965976663e+00 4.5516414204521736e+00 7.7967294675772891e-01 0 0 0
580 1 4.6336121564159756e+00 1.1103532207718676e+00 3.9150361711565012e+00 0 0 0
1950 1 5.6174839796642875e+00 1.2036650419475929e+00 3.7304132542754354e+00 0 0 0
171 1 -1.1575617389237043e+00 3.8294507609923665e+00 1.2068645077092697e+00 0 0 1
1696 1 5.2741621829999126e+00 4.6163090748349331e+00 4.2782122458577811e+00 0 0 0
1160 1 6.3112191736696328e+00 1.4647587424679336e+00 1.4355792176153770e+00 0 0 0
1440 1 1.8093168963126063e+00 3.5444213432680733e+00 2.8102153042568108e+00 0 0 0
664 1 2.4322386324832816e+00 3.8073406289729839e+00 1.8643992530127467e+00 0 0 0
1513 1 4.6095977022603698e+00 4.7672220210755487e+00 7.3415065333240392e-01 0 0 0
3121 1 6.6621305116315046e+00 4.1283126389948617e+00 4.5052114870462905e+00 0 0 0
994 1 2.6858919917300250e+00 4.2707940914900888e+00 3.1058960203116870e+00 0 0 0
1428 1 4.2241119979407555e+00 4.1958210563243732e+00 1.5941823994651976e+00 0 0 0
30 1 3.7858844499283322e+00 4.2003251408571831e+00 4.0608638754711146e+00 0 0 0
534 1 4.1697568686564415e+00 3.9524231150228260e+00 3.1161147409669239e+00 0 0 0
1271 1 3.4247906692975985e+00 4.0515146964682893e+00 2.3187009876027118e+00 1 1 0
952 1 6.1102303101319198e+00 2.4540793103356324e+00 1.0493934599948043e+00 0 0 0
3838 2 4.5937634322832830e+00 4.1997344686020499e+00 3.8129970596090317e+00 0 0 0
2946 1 6.5565551030259721e+00 6.2268545701400002e-01 8.4946705186855398e-01 0 0 0
1072 1 6.0248248282000834e+00 4.1198390544497103e+00 1.9633086355741083e+00 0 0 0
1535 1 5.0627123660521445e+00 3.8446777258216054e+00 2.3653805369966174e+00 0 0 0
3964 2 5.8465977263067419e+00 4.0535039774151889e+00 2.7692976686541471e+00 1 1 0
1979 1 7.3787421347893076e+00 3.3062336336874538e+00 2.0809575214026812e+00 0 0 0
3602 2 4.7473401521015921e+00 1.8960966658292616e-01 4.3699779856239829e+00 0 0 0
2360 1 3.6004113494565058e+00 1.3387017274679944e+00 4.2820359507858763e+00 1 1 0
1425 1 6.2381700914762179e+00 3.2190709237811794e+00 3.8411695681736182e+00 1 1 0
3856 2 3.8805757847188040e+00 8.3573024584753064e-01 3.6766834247757707e+00 0 0 0
386 1 2.7667965881759944e+00 5.5780152171456032e-01 3.9852059287437420e+00 1 1 0
3460 2 6.6333092120184638e+00 2.8868170112982328e+00 3.1655412662933782e+00 -1 0 0
4242 2 7.6725853723273936e+00 1.5622288929094859e+00 1.6441547788442479e+00 0 0 1
235 1 2.4818620532256426e+00 1.5143133599866920e+00 3.9738596130147532e+00 0 0 0
481 1 1.5350211714702233e+00 1.6483206847689786e+00 3.5324414397138288e+00 0 0 0
1054 1 1.6695945891977848e+00 7.0768199498204076e-01 3.8890595144388049e+00 0 0 0
3676 2 6.4659822926180306e+00 2.0053939812497332e+00 2.1429871362020929e+00 1 1 1
751 1 2.1545249801170767e+00 3.5341264666416000e-01 2.8922322113603531e+00 1 1 0
4264 2 1.4556643252641546e+00 8.3473273218798150e-01 3.0377731181654406e+00 1 0 1
2174 1 2.3919635786853712e+00 1.6412896399942625e-01 4.0350862404276527e-01 1 1 0
652 1 2.2001092919662696e-01 6.1475745530469883e-01 3.9090080644821912e+00 0 0 0
4238 2 -3.2034192648585869e-02 3.9602977043349399e+00 1.6835626729185782e+00 1 0 0
3588 2 1.9987128593333225e-01 3.8246274633707165e+00 3.3887997401564114e+00 0 0 0
4267 2 1.8253626295206902e+00 4.7109091428704701e+00 3.2913682893571150e+00 1 0 1
1991 1 8.8345325953845375e+00 4.9362503966041216e-01 2.5051116862457414e+00 0 0 0
2056 1 8.3065973074765314e+00 1.0301698534824748e+00 8.0892661164963031e-01 0 0 1
3619 2 9.7008522085283566e-01 3.4795986320505863e+00 3.0731312700826039e+00 0 0 1
1508 1 9.5740203295750632e+00 1.2334930043909903e-01 3.6308018410088909e+00 0 0 0
1644 1 5.7462105180191037e+00 3.7217974557177382e+00 4.7955060233633029e+00 0 0 0
2330 1 7.5175432597560352e+00 3.9537568908398413e-01 7.2550169445612123e-01 1 1 1
550 1 2.0090985843791498e+00 4.6031132185461638e+00 2.4778368229491181e+00 0 0 0
529 1 -2.0550247779131547e-01 4.5116590392517644e+00 3.1254230043640612e+00 0 0 0
622 1 -2.2754554990172560e-01 2.6279601545730142e+00 9.9509511778200610e-01 0 0 1
1022 1 9.2223649674142738e-01 4.4047515329338420e+00 3.0626740861041508e+00 0 0 -1
1913 1 1.6822061707069635e+00 1.3986649684781753e+00 4.7773350374043790e+00 1 1 0
2677 1 8.8277847087918229e+00 2.5469854607997339e-01 1.3551905791961345e+00 0 0 1
779 1 -1.3301023019470422e+00 4.2608787089974411e+00 3.7416597311644697e+00 0 0 0
656 1 8.5441794930358972e-01 3.5243851680336356e+00 4.9169963877631317e-01 0 0 1
602 1 -5.1674713782758630e-01 2.1321820849073712e+00 4.7089607010092509e+00 0 0 0
1018 1 -4.0332336853990536e-01 4.5850899786481776e+00 1.2293882782025094e+00 0 0 0
4148 2 -1.1499491257217371e+00 3.4700313895845030e+00 3.8094477255100845e+00 1 0 0
3127 1 7.4257825522797782e-01 3.5096877134462048e+00 3.9639743064817381e+00 1 0 0
177 1 -6.7575469309154534e-01 3.5188117966072707e+00 3.1337560324458398e+00 0 0 0
21 1 -2.2017026011265028e-01 1.9842429391916943e+00 1.7934432312211565e-01 0 0 0
668 1 4.6497941716705338e-01 3.2486767054180241e+00 1.5080121952698269e+00 0 0 0
1000 1 1.4916349164319553e-01 1.2180829437284060e+00 1.9278908067779736e+00 0 0 0
3599 2 -9.4198588463073341e-01 3.1043010976790484e+00 7.5905881005550002e-01 0 0 0
4250 2 -5.7674906556814753e-01 4.5440544854017197e+00 4.0151875811062805e+00 1 0 1
610 1 4.5243882709820682e-01 1.5660911765848911e+00 4.6664675092263384e+00 0 0 0
962 1 3.2243373110646578e-01 4.6033914700918999e+00 2.1849417928111894e+00 0 0 0
232 1 -2.7770214042066232e-01 3.6763488527516426e+00 4.0604793030223822e+00 0 0 0
1376 1 1.5994270862466475e-01 1.8624849065825471e+00 2.6973900214906963e+00 1 1 0
3584 2 -1.4464865258934234e-01 1.1470109310518872e+00 1.1660163742758969e-01 0 0 1
1039 1 1.2468447205171316e+00 4.0013893639568883e+00 2.0339344698742527e+00 0 0 0
2444 1 8.7959759184773834e+00 1.4322863642792272e+00 1.3092018142086818e-02 0 0 0
4281 2 8.4808036314582971e+00 2.1803514238962651e+00 2.7631001146501383e-01 1 1 0
851 1 -2.6344677031982822e-01 8.8055461996381990e-01 9.3362763999295595e-01 1 1 0
802 1 2.8043520499460506e-01 2.7018289415047754e+00 4.3496262027655606e+00 1 1 0
2737 1 8.8396109439890829e+00 7.9020329428374692e-01 3.4375485898028213e+00 1 1 0
889 1 5.2376572980525173e+00 1.6868401444079615e+00 4.7078322743175276e+00 1 1 0
1242 1 2.5010496915487854e+00 1.7882457953026296e+00 1.7783957947189069e-01 1 1 0
83 1 -6.4740885553369865e-01 2.5347562329278164e+00 2.7198877693817756e+00 0 0 0
288 1 -5.6826461703962161e-01 2.5569317516899464e+00 3.7547292965188630e+00 1 1 0
166 1 -4.1368070644181504e-01 1.4559380521768959e+00 3.6273136104543480e+00 0 0 0
3040 1 1.0355828188384115e+00 4.4463928883924710e+00 1.2940899992612534e-01 1 0 0
2996 1 6.0716124443599595e-01 4.3033058267859738e+00 1.1137118874645209e+00 1 0 0
2538 1 8.0418447084143558e+00 2.0958767031138121e+00 1.0392775858621341e+00 0 0 0
1988 1 8.4473393411327304e+00 3.1584409749245719e+00 1.6731520779145377e+00 0 0 0
3128 1 3.3935490823518988e-01 2.8710557537721626e+00 3.2693269235616933e+00 1 0 0
548 1 3.4868772734858533e+00 3.4374681550369792e+00 4.6969030066147717e+00 0 0 0
4228 2 3.1537735579108084e-01 4.2635348359241110e-01 2.3724257248856016e+00 1 0 0
4240 2 1.7952467029629582e-01 4.6423148681330995e+00 2.9326253276862396e-01 1 0 0
615 1 -4.8772497014318283e-01 3.1616223078230505e+00 1.8274540684822562e+00 0 0 1
2108 1 4.6528267599207656e+00 3.8485991912962731e+00 4.6319602378695102e+00 0 0 0
3606 2 1.5260855548572383e-01 2.6376508312419529e+00 2.2580473721832228e+00 0 0 0
3707 2 4.3633794957271732e+00 1.7516100327972577e+00 9.7681711464340418e-02 0 0 0
2854 1 7.9237895062525068e+00 2.3408258989370374e+00 4.3542077002306128e+00 1 1 0
2081 1 8.3290275254623189e+00 3.2193351832292625e+00 3.8022196091806340e+00 0 0 0
1457 1 6.9975125379857852e+00 4.6405879528601233e+00 3.4866828077957570e+00 0 0 0
2386 1 8.5716069621560873e+00 1.4149792836740120e+00 1.8128241305027453e+00 1 1 1
2063 1 7.6828167691386033e+00 4.3357672425456144e+00 2.7361562071221619e+00 0 0 0
357 1 1.0088686981100419e+00 6.2798313545505899e-02 3.2867160820021102e+00 1 1 0
1491 1 9.2029572152172512e-01 6.7742371218660791e-01 4.7426418046567642e+00 0 0 -1
558 1 -5.5282223685382215e-01 2.0150721243300151e+00 1.8637611180154046e+00 0 0 0
986 1 -1.0742585624505219e+00 3.7355138198204636e+00 4.7291379601392149e+00 0 0 0
263 1 -1.2072064061695702e+00 4.7828707282434486e+00 2.8243521133126408e+00 1 1 -1
3111 1 -1.2177303551250196e+00 4.7641180016388525e+00 4.6496123934114086e+00 1 0 0
1132 1 1.9861697337565531e+00 1.4498489373800605e-01 4.7997318148335104e+00 0 0 0
1441 1 7.9438254844906799e+00 2.8776055745559175e+00 8.4280823805400043e-02 0 0 0
1098 1 6.0930048881140122e+00 2.6617691626387434e+00 1.8045542003679797e-02 0 0 1
153 1 -2.6834383324582745e-01 4.3794852719140147e+00 4.9376996338602490e+00 0 0 1
1984 1 8.4335009337806923e+00 2.4281685648922111e+00 5.3784621288372731e+00 0 0 0
186 1 2.6691220029750289e+00 4.3796354641385191e+00 8.3047420613831626e+00 0 0 0
1634 1 6.7136583099898433e+00 4.0136375018161621e+00 7.5475044279919095e+00 0 0 0
1504 1 5.0737230991131206e+00 4.5597480676170612e+00 5.3183935344811868e+00 0 0 0
3510 2 5.3059691057084963e+00 4.5105487718470849e+00 8.1016254895054107e+00 0 0 0
2039 1 7.6120109163603438e+00 4.9179839228710032e-01 5.0905779618417704e+00 0 0 -1
1099 1 6.6060000056141077e-01 4.6560529469147021e+00 6.5977248906001478e+00 0 0 0
3364 1 6.4556996595603762e+00 3.3084990136235470e-01 5.9773789472278480e+00 1 1 0
1184 1 4.4662211778092260e+00 4.4946052538700618e+00 6.1339756933085043e+00 0 0 0
2473 1 8.3514062564875218e+00 8.7677702635937393e-01 8.4846689133930226e+00 0 0 -1
1722 1 5.0058316141558068e+00 1.1663126021845382e-01 8.0043455828853514e+00 1 1 0
538 1 3.6613674587842215e+00 1.2115809392404773e+00 6.6639169022647291e+00 0 0 -1
4177 2 2.5388982347885127e+00 1.9087861982605947e+00 5.2405501285505869e+00 1 1 0
409 1 1.1481907722181890e+00 3.5781695101366369e-02 5.5904598668081213e+00 1 1 0
913 1 1.6857417179512285e-01 1.1353274460482425e+00 6.5625221518955090e+00 1 1 0
1681 1 7.3143903315362468e+00 2.7514471505146583e+00 5.4119290999722027e+00 0 0 0
3924 2 4.7879743799939796e+00 1.4286170828980573e+00 7.3781398791379083e+00 1 1 -2
1434 1 1.9526774123629844e+00 2.9623865484034406e-01 8.4090743740474245e+00 0 0 0
3752 2 1.0429309487499903e+00 1.9584461830964461e+00 5.1915972711282254e+00 0 0 0
526 1 7.8259661931124991e-01 1.2102415677621818e+00 5.6490271023842338e+00 0 0 -1
1080 1 1.8973737254365233e+00 1.5942187094057165e+00 5.7805294742269284e+00 0 0 0
3881 2 7.7798262868858146e+00 3.2907287761996149e+00 8.8854228748816375e+00 0 0 0
3839 2 7.7935978577738325e+00 2.6295475449234562e-01 7.9902372336291956e+00 0 0 0
4295 2 4.1617642078792039e-01 8.1891117524182100e-01 8.4539364051259458e+00 2 1 0
1498 1 1.4223686505144530e+00 8.0317272881711366e-01 6.2862288706958980e+00 0 0 0
1683 1 2.9065036970640032e+00 1.4210300267296458e+00 5.9744016571846954e+00 0 0 0
1199 1 3.3482746571735085e+00 1.8748375024400514e+00 5.0646300790698424e+00 1 1 0
4081 2 2.7135454181365004e+00 3.9572669727638510e+00 9.1514369800908621e+00 0 0 -1
3793 2 6.4890416057492670e+00 4.1091250041877705e-02 9.3534761680240202e+00 1 1 -1
1349 1 4.4006107596934871e+00 9.7201133177241394e-01 5.9799263658752402e+00 1 1 0
4122 2 5.1150625694537606e+00 1.0557039497726213e+00 5.3150759746003207e+00 0 0 0
971 1 7.5175630987169031e+00 3.9298397408271835e+00 9.4774522093219726e+00 0 0 -1
1654 1 5.3193774758655445e+00 1.6558323334245728e+00 6.0164938248536890e+00 0 0 0
1907 1 5.4312192091700737e+00 6.5825874750294844e-01 6.1103479692225777e+00 1 1 0
2102 1 8.6700245606013926e+00 1.9516027855070531e-01 7.7720996606349111e+00 0 0 0
4175 2 7.6302909805291854e+00 1.7707857119019881e+00 7.7915541951954896e+00 1 1 0
626 1 7.9234017646869603e-01 2.5155561958747765e+00 7.1005549486083597e+00 0 0 0
1955 1 6.7413151308833390e+00 4.0478300467685946e+00 6.4351791232816593e+00 0 0 0
933 1 -3.9854240177535205e-01 3.2745679248596464e+00 8.6308652992633839e+00 1 1 0
1674 1 7.5479453258522415e+00 1.8084403541222857e-02 7.0797221846151475e+00 0 0 0
1407 1 7.7942509031899982e+00 2.4355406780012498e+00 8.8499133504164060e+00 1 1 0
1212 1 7.9817760831103675e+00 7.5258436300857423e-01 9.4864441938927371e+00 1 1 -1
1142 1 4.6799274327498086e+00 4.3399186091396338e+00 8.9976958577541133e+00 0 0 0
2753 1 7.7969955482432081e+00 1.0152972146054269e+00 7.5771960097762978e+00 1 1 0
513 1 1.9744286573247307e+00 4.8267284107009933e+00 4.9528490034246326e+00 0 0 0
581 1 -8.2557166959996442e-01 3.4519991555221079e+00 9.6464649713366093e+00 0 0 -1
1095 1 6.0958399674956976e+00 2.1393658065434331e+00 7.9204413697086284e+00 0 0 0
4220 2 6.2150795776451648e+00 1.3215899617878033e+00 7.3272148392949425e+00 0 0 -1
1180 1 2.4542483965005746e-01 2.4286298481030060e+00 5.3626983574347040e+00 0 0 0
370 1 9.4240501164394330e-01 2.7517148079642145e-01 7.9707799788700200e+00 1 1 0
1114 1 1.7738267959274192e+00 2.5203091895497431e+00 5.2926306240189831e+00 0 0 0
1187 1 2.4202695825913252e+00 2.3806456394737654e+00 6.1801790751881587e+00 0 0 0
659 1 1.4895916806595826e+00 3.1900863004184346e+00 6.1614916298281353e+00 0 0 0
3713 2 2.1960998899695383e+00 3.2027677119812572e+00 5.6482287534136200e+00 0 0 0
698 1 1.0505466912305423e+00 2.1913410447526327e+00 5.9840310053518229e+00 0 0 0
1177 1 2.8008482352553949e+00 2.7427798780394248e+00 5.2259243401309501e+00 0 0 0
1853 1 3.5490061263659283e+00 2.2283210566083151e+00 6.2006868041911645e+00 1 1 1
3123 1 3.3559486603302355e+00 3.2746892359825366e+00 6.0344764040826977e+00 1 0 0
3577 2 4.2837042272415573e+00 2.8665656342093229e+00 6.1187613969220864e+00 0 0 -1
1361 1 6.9958605673497667e+00 2.3018912111675403e+00 8.2494552026013324e+00 1 1 0
1647 1 4.3849008758974097e+00 1.9925198280750860e+00 5.6046222110076211e+00 0 0 0
1049 1 5.3528666924883499e+00 2.4936496930188263e+00 5.3941903636360591e+00 0 0 0
2196 1 6.0722257992655884e+00 3.2185951243722011e+00 5.7681904881325083e+00 1 1 -1
1153 1 5.1330918165317989e+00 2.6949977800383667e+00 6.3880854455437905e+00 0 0 0
1171 1 6.8871779075070299e+00 3.6662606569985967e+00 5.3820776533763945e+00 0 0 0
1676 1 4.2115146432102541e+00 2.8696199831997955e+00 5.2320280491637554e+00 0 0 0
2161 1 7.5319326722106172e+00 3.4642518487810818e+00 6.9304614493645200e+00 0 0 0
3565 2 5.9713171634882531e+00 4.6408615864377412e+00 4.8954608712132321e+00 0 0 0
227 1 1.8595221705642107e+00 3.8180064187172169e+00 8.7211346691438258e+00 0 0 0
2042 1 7.3919384143146658e+00 7.1929769170731295e-01 6.1719519729852665e+00 0 0 0
621 1 2.3765600247416820e+00 3.4039253258768065e-01 5.8168070027260415e+00 0 0 0
1021 1 6.0324217465250953e+00 3.6778410872569900e+00 9.0811145201543191e+00 0 0 0
1640 1 5.3700380556464467e+00 2.6015118440439000e+00 8.7382095472667558e+00 0 0 0
784 1 5.4890778483638769e+00 1.2523397675058268e+00 6.9419845389395078e+00 1 1 0
2060 1 7.9948544435468225e+00 2.6948906621809039e+00 6.3461507451957369e+00 0 0 0
1093 1 1.6321508307487598e+00 4.0471839889272587e+00 5.5688802958189170e+00 0 0 0
3787 2 4.6190302390533198e+00 4.0491821836973427e+00 7.3010069154136410e+00 0 0 0
2088 1 2.8095040862643978e+00 3.8626229957345584e+00 5.4145760582533002e+00 0 0 0
127 1 2.4295185051401269e+00 3.5988331362564110e+00 6.4473786312636356e+00 0 0 0
3749 2 6.0848351540834553e+00 4.0663351836282029e+00 8.2223407257989880e+00 0 0 0
1085 1 3.9174501198092275e+00 3.9181439284968906e+00 5.4925301554114014e+00 0 0 0
3016 1 3.3100929925092792e+00 4.2453437818466613e+00 6.2545353991291117e+00 1 0 0
1078 1 4.3634697120790253e+00 2.5928475063585248e+00 8.1378732865857746e+00 0 0 0
1030 1 4.9445074612914821e+00 3.5421941731096775e+00 5.5890817702644107e+00 0 0 0
1107 1 1.9302451013632071e+00 8.8945084939578267e-01 9.3710061707367398e+00 0 0 0
1115 1 5.3223097466630511e+00 4.0115460936160083e+00 6.4686671116629837e+00 0 0 0
1635 1 7.2561486229067542e+00 1.8717911139564045e+00 6.1583211395230597e+00 0 0 0
3634 2 5.8276132168981372e+00 2.8019467156005535e+00 7.4854759342814843e+00 0 0 0
2115 1 8.3948459649414175e+00 1.9668316448735004e+00 8.1789575618552224e+00 0 0 0
624 1 4.3684050925775457e+00 2.5349090890621264e+00 9.2500659188961833e+00 0 0 0