LAMMPS data file via write_data, version 12 Dec 2018, timestep = 429000

4320 atoms
2 atom types

0.0000000000000000e+00 1.9309999999999999e+01 xlo xhi
0.0000000000000000e+00 1.9309999999999999e+01 ylo yhi
0.0000000000000000e+00 9.6549999999999994e+00 zlo zhi
-6.7585000000000015e+00 0.0000000000000000e+00 0.0000000000000000e+00 xy xz yz

Masses

1 1
2 1

Atoms # atomic

610 1 1.3636963576735583e-01 1.6667982836250599e+00 4.7144646316364973e+00 0 0 0
2159 1 7.4743302237284377e+00 4.0623223234434400e+00 4.0403291374547932e+00 0 0 0
976 1 3.5842324648356403e+00 2.6012244842234877e-01 4.4974165596900422e+00 0 0 0
818 1 1.0746740248290559e-01 4.6038968080170040e-01 2.7357641770729224e-01 1 1 0
1621 1 4.9844014445018630e+00 4.6096837078213024e+00 3.1502353883956129e+00 0 0 0
1870 1 6.0265961292774133e+00 1.6131437459696980e+00 4.0444713003814037e-01 1 1 1
4041 2 5.8283001611237575e+00 5.3671648924454551e-01 4.0098452299828002e+00 1 1 0
1493 1 8.5235304356030266e+00 1.7345176731123988e+00 4.0051484100687809e+00 0 0 0
1544 1 6.8447387711048382e+00 2.3537138367929868e+00 6.1215979317676783e-01 0 0 0
3635 2 6.9302559773523758e+00 9.1805331428364556e-01 4.6775380312511050e+00 0 0 1
3500 2 8.8171423543993566e+00 7.2510424658176686e-01 4.4222343905114059e+00 0 0 1
4116 2 1.7314142256007246e+00 2.6071117591879261e-01 1.3601941997983680e+00 1 0 -1
3688 2 1.9524305376882456e-01 3.8621529374920902e+00 4.6836303154240015e+00 1 1 0
1526 1 1.8468695050934689e+00 3.3115015699643631e+00 4.7546729778789212e+00 0 0 0
1127 1 1.1767906206125542e+00 2.4731405222618488e-01 5.6674475955884185e-01 0 0 1
1554 1 1.7340839761919700e+00 1.1011468685439683e+00 7.5204070530107403e-01 0 0 1
4042 2 7.8975708327673644e-01 1.4271701050622658e+00 4.2027405425228199e+00 1 1 0
95 1 2.6917148288912522e+00 5.2204283894621517e-01 1.3445840040296213e+00 0 0 0
717 1 -3.2304126055998628e-01 3.7063158054998606e+00 8.0651081170421324e-01 0 0 1
870 1 2.6202228782388879e+00 1.6332357072267967e+00 1.2234662850643427e+00 1 1 1
1798 1 3.1027721639053860e+00 8.8246301275535399e-01 5.0245200870204809e-01 1 1 0
2689 1 6.8476052637938309e+00 2.0976412235254909e+00 2.7638666745274314e+00 0 0 0
906 1 6.1770621302347166e+00 2.7900337397038069e+00 2.2751738728360893e+00 1 1 0
1615 1 4.0009825247265516e+00 1.5460281846747483e+00 9.3200734035501132e-01 0 0 1
3750 2 -7.7981261933969759e-02 1.4781411836411966e+00 1.3586779562778535e+00 0 0 1
1357 1 3.5678016792297296e+00 2.7269634126309683e-01 1.8689942850250356e+00 1 1 1
767 1 5.0286771121347060e+00 1.6162901835047390e+00 1.1120367009959369e+00 1 1 0
586 1 8.7938497125747972e-03 3.6754101362994622e+00 2.5282159934727164e+00 0 0 0
3468 2 4.9567128351293155e+00 2.7840171813442711e+00 7.6905556606919900e-01 -1 0 1
2132 1 7.4102828533225802e+00 1.4103633527144905e+00 3.9650369540267620e+00 0 0 0
4208 2 -8.4031418494109267e-01 2.9894979137411348e+00 4.7347739950795589e+00 1 0 0
1671 1 7.0042351944429413e+00 4.1690353986612436e+00 8.1615644612052118e-01 0 0 1
3771 2 6.7217946430638698e+00 3.8678681862482120e+00 3.5671770184614986e+00 1 1 -1
3707 2 4.3100774797470462e+00 1.6220545232330459e+00 1.7437898913592276e-01 0 0 0
4063 2 7.1153513668268564e+00 8.7160445104713269e-01 3.1411508204391545e+00 1 1 1
1165 1 2.7887504066529845e-01 1.9738048473135268e+00 3.7655353304141870e+00 0 0 0
2201 1 6.0365137175925447e+00 4.4397366243786918e+00 9.7182893564992701e-01 1 1 0
1359 1 4.8777602058043570e+00 8.6824621007684255e-01 2.5042712655013011e-01 1 1 1
1499 1 5.0051667944902913e+00 2.1086443039092724e+00 1.5400555400103311e-01 0 0 1
537 1 5.0176931497554689e+00 2.8410576110224270e+00 4.4615348698920911e+00 0 0 0
34 1 7.8610955098352753e-01 2.5153794715994779e+00 6.7277653330446763e-01 0 0 0
1441 1 7.6754946483194146e+00 2.8621315626298336e+00 7.4906610837904633e-02 0 0 0
968 1 1.8033206149703715e+00 2.4102259944515705e+00 5.9274336391580407e-01 0 0 1
3708 2 1.2118555223685423e+00 1.8233677141017588e+00 8.7322415741326154e-01 0 0 0
1166 1 1.4396572991718974e+00 3.1629970037129551e+00 1.3499257108637353e+00 0 0 1
3768 2 1.6028126647658147e+00 3.3229936395195367e+00 5.2487042394821626e-01 1 1 0
1563 1 6.2785040588897632e+00 5.1727385516748541e-02 4.8133910776364836e-01 0 0 1
3757 2 3.3407094562342339e+00 2.0823517570388970e+00 1.0426715861089157e+00 0 0 1
1764 1 2.8579137478373884e+00 2.5814409059252270e+00 5.1595837258042265e-01 1 1 0
1617 1 4.0228151855098195e+00 2.5992408552219994e+00 5.8085723769514697e-01 0 0 1
1785 1 4.7825236489346850e+00 5.4903186774580715e-01 2.7915380792482090e+00 1 1 0
2850 1 7.6632721519718254e+00 2.4667803740274015e+00 2.2309613675799351e+00 1 1 0
2754 1 7.6765651391781455e+00 2.2235440801383816e-01 3.2050866165113936e+00 1 1 0
1505 1 1.5995861615944333e+00 4.0830898004449940e+00 3.7470864547240379e+00 0 0 0
1667 1 7.5151959944006395e+00 7.9999164357800845e-01 1.7953263314555177e+00 0 0 1
3584 2 -3.5496730573500679e-01 1.1157052567138801e+00 2.0801359702850869e-01 0 0 1
2076 1 5.7681659902681872e+00 2.2094379303409895e+00 3.0327881374997760e+00 0 0 1
1573 1 4.8118880848926420e+00 2.1486023737391120e+00 3.4676435251850002e+00 0 0 0
1071 1 4.2064101700597831e+00 2.1062384021293621e+00 4.5238716903692051e+00 0 0 -1
1897 1 5.5932955411254452e+00 2.6651404283606756e-01 2.0553681060608002e+00 1 1 1
1029 1 3.8884686024548363e+00 3.4116246190211802e-01 8.3807516058859244e-01 0 0 0
1358 1 1.9082730414595059e+00 1.1197137195688518e+00 1.7405501610242982e+00 1 1 1
1678 1 6.4602538171918411e+00 3.7946374811084689e+00 2.6905242703660157e+00 0 0 1
1489 1 7.7912388389459597e+00 2.3894344136979622e+00 3.3131589586824002e+00 0 0 0
860 1 4.1557123285234727e+00 2.9579175222746263e+00 3.9478748675189030e+00 1 1 1
1538 1 6.3455750913760385e+00 1.3178759208282766e+00 3.2897272150316401e+00 0 0 0
1081 1 3.1132706115863535e+00 3.3458150908825837e+00 3.5358904928755726e+00 0 0 1
124 1 2.4703243727544639e+00 3.9520975326962029e+00 4.1185586475825522e+00 0 0 0
3764 2 5.2999913706812016e+00 1.0570516165988098e+00 1.7492201482044847e+00 1 1 -1
1019 1 2.3927301960982597e+00 3.5288003035059581e+00 8.9026754461389612e-01 0 0 0
1198 1 1.5054950978018977e+00 4.0937525037374458e+00 1.1005122617852567e+00 1 1 0
3627 2 2.3333604443221305e+00 4.3672906769946405e+00 7.3626140772489623e-01 0 0 1
814 1 3.2572697877771302e+00 2.4874577795140147e+00 4.2777741695988105e+00 1 1 0
1194 1 3.7381545714019966e+00 1.9160232050589947e+00 3.4661084464977243e+00 1 1 0
567 1 3.3949742595854921e+00 3.4620696179279062e+00 9.0934669383412725e-01 0 0 0
669 1 2.9987164501927888e+00 4.3861654960397995e+00 1.3390287809053887e+00 0 0 1
1062 1 2.7192023592795573e+00 2.3254961795181406e+00 3.4110885164313980e+00 0 0 0
1051 1 3.0494336405316202e+00 4.1806062097477801e+00 1.6471097446974203e-01 0 0 0
3884 2 2.6340199470991745e+00 3.0917881035108783e+00 4.1981335300542870e+00 0 0 1
1858 1 5.7639267054254164e+00 2.1350451320425550e+00 4.0812993580335224e+00 1 1 0
2164 1 1.9752808167612914e+00 3.0651970741241472e+00 3.6558356619220578e+00 0 0 1
503 1 5.5247662584553687e+00 3.4367853562119550e+00 7.3696775310991325e-01 0 0 0
1506 1 4.4886379881313259e+00 3.3790725099251007e+00 1.0832666748320541e+00 0 0 0
1564 1 5.3135430518059801e+00 4.1922857553669761e+00 1.3989687520475313e-01 0 0 1
1572 1 5.0637813243287226e+00 4.2352982761552074e+00 1.2059344302578909e+00 0 0 1
1818 1 3.2309500585648387e+00 1.8461098019412028e-01 2.9193873284568013e+00 1 1 1
253 1 4.4705084989728838e-01 1.5397868327840819e-01 1.3303759558742776e+00 1 1 0
1007 1 2.1497616093673138e+00 2.3206819028721126e+00 4.3604544727772261e+00 0 0 0
1470 1 6.3491290261637809e+00 3.3660064506830261e+00 1.3998481941030310e+00 0 0 0
1167 1 1.0728977760469363e+00 2.3810583613472041e+00 4.3691217577429997e+00 0 0 0
1485 1 7.6608945167239311e+00 1.4467734988007237e+00 2.7979811740309830e+00 0 0 0
4119 2 1.6758946541149793e+00 2.0912463233189675e+00 3.6702963130780577e+00 0 0 0
3719 2 1.3159489126687065e+00 3.2379559006765746e+00 4.1251926430936372e+00 0 0 -1
572 1 1.0390064555044165e+00 2.6411546645837500e+00 3.3511888400699950e+00 0 0 0
2250 1 6.7228097377680864e+00 2.3599543857306187e+00 3.7983428289315118e+00 1 1 0
2145 1 7.1714509730484757e+00 3.2451777424504500e+00 3.2366874503642147e+00 0 0 0
263 1 -1.2963593708427963e+00 4.7433146286183216e+00 2.9199880034148018e+00 1 1 -1
1689 1 7.0269757290316406e+00 3.1183616016108817e+00 4.4937632258223728e+00 0 0 0
159 1 1.1464799207296448e+00 3.4245857297964677e-01 2.0972594799738160e+00 0 0 0
1042 1 -8.7932755070125990e-01 4.6516102543262798e+00 2.8017174273640472e-01 0 0 0
1073 1 4.1235822756674541e+00 1.1958708638684175e-01 3.5622361349262768e+00 0 0 0
1134 1 1.1285150194628382e+00 1.3141576956676677e+00 2.3434552154154087e+00 0 0 1
1040 1 1.5622214435181201e+00 2.0567757239775748e+00 1.6893452851182662e+00 0 0 0
2513 1 7.0857864584804773e+00 1.3602925255178360e+00 1.0922551685683863e+00 0 0 0
1783 1 2.7827085807585754e+00 9.0276010029781073e-01 2.3008863546670884e+00 1 1 0
3878 2 3.4736963488205248e+00 9.9194155512613569e-01 1.3468598024948162e+00 0 0 1
631 1 2.0235892788773788e+00 1.3357498271729171e+00 2.9066227649287257e+00 0 0 0
3756 2 4.5504343193647534e+00 8.0189268300829564e-01 1.1353930558251046e+00 0 0 1
2340 1 6.8859281923828144e+00 1.0241994729938080e+00 9.7305597780285025e-02 1 1 1
575 1 2.9763794296026429e+00 1.2190045194232557e+00 3.3391788072628619e+00 0 0 0
722 1 3.5466046743530404e+00 1.6324991853696800e+00 1.9729333393952728e+00 1 1 0
1147 1 3.8593264705132939e+00 1.0478604030144301e+00 2.8387037051337520e+00 0 0 1
1351 1 4.4621591508613072e+00 1.1846979556500639e+00 2.0153577437907231e+00 1 1 0
3775 2 4.6599207005006260e+00 1.3994839614901746e+00 2.9461864614064743e+00 1 1 0
3097 1 6.9118379297122097e+00 2.0518311503259684e-01 2.4001020591786402e+00 0 0 1
1472 1 6.7713112659130932e+00 4.4115922270036663e+00 1.8532872108853593e+00 0 0 0
3503 2 5.3034226455285927e+00 2.8316862224705899e+00 3.5810827262868132e+00 -1 0 2
4267 2 1.6842428566974903e+00 4.7642498543994094e+00 3.2119226654678386e+00 1 0 1
1065 1 5.0006698368273850e-01 2.1679879718838291e+00 1.6501282631512693e+00 0 0 0
1711 1 6.5301344349217008e+00 3.3410166701198234e+00 3.8849321778130680e-01 1 1 0
1622 1 5.9174410233343773e+00 4.2123984518537796e+00 3.5681868653238835e+00 0 0 0
1855 1 5.4348335404204775e+00 5.9445996875584006e-01 1.0355858543138010e+00 1 1 1
1471 1 7.6526766423259751e+00 4.1788263586739899e-01 4.3069285701409425e+00 0 0 0
1965 1 6.7476294125177914e+00 2.2319436442846801e+00 1.6339962156485628e+00 0 0 0
1455 1 5.8786242330403384e+00 2.9747784835932717e-01 3.0959214310460905e+00 0 0 0
636 1 -8.7477014112355089e-01 4.0705008121440782e+00 2.2501466776153927e+00 0 0 1
1519 1 6.7037723971646184e+00 1.1949060797695361e+00 2.3076490246404853e+00 0 0 0
2646 1 8.7267892316671976e+00 1.6965380630324072e+00 2.9662624996162816e+00 0 0 1
2941 1 9.6912612382699059e-01 2.8681708676446034e+00 2.2890220277885209e+00 1 0 0
3608 2 9.2249280209794393e-01 2.0784861956365046e+00 2.5813893423479062e+00 0 0 0
574 1 1.0412381191100011e+00 3.9845625728305634e+00 4.6016751338314013e+00 0 0 0
555 1 8.8315360179840485e-01 1.0595083310325843e+00 1.3629467996501927e+00 0 0 0
505 1 2.4050521111142782e+00 2.7057067913494537e+00 1.5032815947318159e+00 0 0 0
663 1 1.8198360305864023e+00 2.3411614793818210e+00 2.8202764028157290e+00 0 0 0
3686 2 1.8113212975486526e+00 3.0141514864803614e+00 2.1564951515990902e+00 1 1 0
1446 1 2.5452296102713778e+00 3.0850591693028910e+00 2.5967077051276295e+00 0 0 0
568 1 2.6001866702026279e+00 1.8907132588733990e+00 2.1769869027719797e+00 0 0 0
3703 2 2.9442391714506488e+00 3.4634131799940313e+00 1.6421373796736969e+00 0 0 0
3533 2 3.2361675403239039e+00 1.8770035747798446e+00 2.7454827215817295e+00 1 1 0
1462 1 3.4758378664833978e+00 2.6127031573616684e+00 1.7362322539836774e+00 0 0 0
1511 1 3.5271834210831337e+00 2.7232522248139786e+00 2.7767445877960957e+00 0 0 0
1561 1 4.0581589503385018e+00 3.3852470979134606e+00 2.0875968373913381e+00 0 0 0
2197 1 4.2970728560566487e+00 2.0877050483413173e+00 2.5587600307464951e+00 1 1 0
566 1 4.4599226462012744e+00 2.3953896499253511e+00 1.4909671818723351e+00 0 0 0
1437 1 5.3137042956683453e+00 3.1653830132989538e+00 1.6867963543855364e+00 0 0 0
2101 1 5.3705344159316448e+00 2.1088959779460352e+00 2.0467069486061238e+00 0 0 1
3946 2 4.8548310611249024e+00 2.7440844484717197e+00 2.3581213947184612e+00 1 1 0
1721 1 4.5214072413398423e+00 3.1080437542786918e+00 3.0410554736979312e+00 1 1 0
2421 1 5.5387839277259561e+00 3.3164486612362505e+00 2.8590312522219872e+00 0 0 0
2098 1 4.0930430138194662e+00 3.8550353236658448e+00 1.6713835538518770e-01 0 0 1
1103 1 6.1964034237468972e+00 1.2936588759306109e+00 4.3783203966557274e+00 0 0 0
599 1 5.6401750242263882e-01 6.2841688824402131e-01 2.9705087244303834e+00 0 0 0
991 1 5.5348784635578685e+00 1.2490536119789433e+00 2.5843358202642115e+00 0 0 0
1380 1 4.6051828818724934e+00 1.7603058647369046e-01 1.7319822310828026e+00 1 1 1
1190 1 3.5853689886391715e-01 1.5490145552317895e+00 6.1415733206490986e-01 0 0 1
288 1 -8.5219885094766967e-01 2.7015511662079095e+00 3.7566919321900163e+00 1 1 0
2176 1 6.6695843656285740e+00 4.7524406810931485e-01 3.8259356497037227e+00 1 1 0
878 1 5.2171441993587022e+00 7.1916557589790675e-01 4.5575332328034497e+00 1 1 0
2468 1 7.4074341789512932e+00 3.1596584969921215e+00 1.0719335187260872e+00 0 0 0
1682 1 5.0595306692827693e+00 3.6532752867308735e+00 3.7534498689538083e+00 0 0 0
3865 2 3.6940436205236300e+00 4.4959319608266819e+00 6.2517098366947432e-01 0 0 0
580 1 4.3249978739151445e+00 1.1537089511430636e+00 3.7701099809732761e+00 0 0 0
1950 1 5.2793593574518880e+00 1.1525031149346490e+00 3.6160433923819224e+00 0 0 0
1457 1 6.8511546960700507e+00 4.6909227331536014e+00 3.4404169978803538e+00 0 0 0
1696 1 5.0045003048464993e+00 4.5874480364037487e+00 4.2082809984356810e+00 0 0 0
1160 1 6.0181590162979397e+00 1.4793457008505424e+00 1.4315956396701424e+00 0 0 0
1440 1 1.6102225583740577e+00 3.5584004919338454e+00 2.7528622524613784e+00 0 0 0
664 1 2.1961178333186213e+00 3.8562490833217158e+00 1.8775693393487189e+00 0 0 0
2084 1 6.3016203634811534e+00 4.5844877408939135e+00 2.3749540748735736e-02 0 0 1
3121 1 6.4804371200118149e+00 4.0216444484704255e+00 4.4594475371121494e+00 0 0 0
994 1 2.5601731508406895e+00 4.2098432234625980e+00 3.0468121200041169e+00 0 0 0
1428 1 4.0745145822008073e+00 4.3231339569025371e+00 1.4850714109081065e+00 0 0 0
30 1 3.4113765748020004e+00 4.3411585467087495e+00 3.8304416413147639e+00 0 0 0
534 1 4.0030804267879017e+00 4.0148053765347536e+00 3.0674967229249566e+00 0 0 0
1271 1 3.2671283832271500e+00 3.9385448697382364e+00 2.3327823567179311e+00 1 1 0
952 1 5.7698590378787804e+00 2.4293408218283847e+00 1.0101928307982366e+00 0 0 0
3838 2 4.2627248453878410e+00 4.3027769476807611e+00 3.8729993941809546e+00 0 0 0
2946 1 6.4911917667248291e+00 5.4312396308948130e-01 1.4882766725441827e+00 0 0 0
1072 1 5.8322008646762074e+00 4.1252101054152686e+00 1.9191097294416384e+00 0 0 0
1535 1 4.8647817292357889e+00 4.0200185399805939e+00 2.3120843651907252e+00 0 0 0
3964 2 5.6855581575510730e+00 4.1909286693171728e+00 2.7418023120791948e+00 1 1 0
1979 1 7.1140934786534791e+00 3.3634698321924117e+00 2.0698428136640445e+00 0 0 0
3602 2 4.4488345662701878e+00 4.2239096854071223e-01 4.2931223498981153e+00 0 0 0
2360 1 3.3034579327538256e+00 1.3146567820686146e+00 4.3470672779334452e+00 1 1 0
1425 1 5.9973013040370819e+00 3.1886737294184715e+00 3.9234119449124600e+00 1 1 0
3856 2 3.4567577839708754e+00 6.0786558841304117e-01 3.7335868874109090e+00 0 0 0
386 1 2.6234907679860959e+00 4.1383394553266967e-01 4.1218976754161574e+00 1 1 0
3460 2 6.3027929966842287e+00 2.9703325410070156e+00 3.1164521538843513e+00 -1 0 0
4242 2 7.4249423847622023e+00 1.6900984264765675e+00 1.8756992280639269e+00 0 0 1
235 1 2.0875526557849642e+00 1.2821025149268896e+00 3.9779641140174942e+00 0 0 0
481 1 1.1318210664664814e+00 1.5240954228443282e+00 3.3742712810521711e+00 0 0 0
1054 1 1.2760864437909003e+00 6.2425526540664555e-01 3.7750917451552928e+00 0 0 0
3676 2 6.1391104914830450e+00 1.8791509005953730e+00 2.3129337410835848e+00 1 1 1
751 1 2.2032996855403346e+00 3.3813455271361498e-01 3.1918263397608304e+00 1 1 0
4264 2 1.4170898382457950e+00 7.4787418441631648e-01 2.8864140442079904e+00 1 0 1
1512 1 2.1897809972780240e+00 2.7037783848689646e-02 2.2397628568991590e+00 0 0 0
652 1 7.8261840401949112e-02 8.5838252976947649e-01 3.9102234028036431e+00 0 0 0
4238 2 -1.6312390469745086e-01 3.9620662946583125e+00 1.6836804961140506e+00 1 0 0
3588 2 -4.8530153579902091e-02 3.8632910480187719e+00 3.4881888114695681e+00 0 0 0
4250 2 -6.4775506748426048e-01 4.6138211377192606e+00 3.9828428947059757e+00 1 0 1
1991 1 8.3853006760897220e+00 6.3252039937011728e-01 2.5121648312321891e+00 0 0 0
2056 1 8.0811729280630651e+00 1.2737333880421502e+00 8.6649368611765409e-01 0 0 1
3619 2 7.5843399061458716e-01 3.3426800760215838e+00 2.9564744090948820e+00 0 0 1
1913 1 1.4357300786685159e+00 1.5149893060669815e+00 4.7968457739515804e+00 1 1 0
2631 1 8.0765919700639657e+00 3.3042876919304729e+00 2.6669739639615031e+00 0 0 0
2330 1 7.4707271923186660e+00 4.4546505183571244e-01 8.0842807840382602e-01 1 1 1
550 1 1.7773011932631562e+00 4.6317392332610723e+00 2.3144414134647349e+00 0 0 0
529 1 -2.9270624836806380e-01 4.6466209052879650e+00 3.0826479291647151e+00 0 0 0
622 1 -2.5923341273490563e-01 2.6094415512394828e+00 9.0805482853432884e-01 0 0 1
1022 1 8.0243023374836908e-01 4.2493390346625803e+00 2.9921430763325869e+00 0 0 -1
1242 1 2.4263408193626201e+00 1.6523750981278245e+00 1.2936003564628884e-01 1 1 0
2677 1 8.4671380160366798e+00 4.6943326534878943e-01 1.3676596608178282e+00 0 0 1
4263 2 3.6082686287493253e+00 4.8052120166994410e+00 2.0576246559298665e+00 1 0 0
656 1 7.7467980366431277e-01 3.5671372630879112e+00 5.4708045304054309e-01 0 0 1
964 1 7.7582035202460702e+00 4.0614877297077037e+00 1.6065786816271024e+00 0 0 0
1018 1 -5.5962304036923771e-01 4.6465058266852184e+00 1.2659130706997455e+00 0 0 0
970 1 2.9341580815992874e+00 4.7410759724377431e+00 4.8016363422010970e+00 0 0 0
3127 1 5.7333359255654948e-01 3.4847558365981066e+00 3.8344602203278404e+00 1 0 0
177 1 -8.4085497838689660e-01 3.6593348474703609e+00 3.1852139785653932e+00 0 0 0
668 1 3.3647342322854334e-01 3.2748847505978849e+00 1.4633069599576567e+00 0 0 0
1000 1 1.2127722224658094e-01 1.1136828129624412e+00 2.0761636252628870e+00 0 0 0
3599 2 -1.0072725231558262e+00 3.1908122045430352e+00 8.1496594038443038e-01 0 0 0
987 1 3.4300353561824659e+00 1.8262363418430299e+00 8.1804755741768070e-02 0 0 0
4133 2 6.9959598244710577e+00 4.8258920496458728e+00 4.3508293794908610e+00 0 0 0
962 1 1.7241872535069658e-01 4.6857401001483590e+00 2.1874736430563897e+00 0 0 0
232 1 -5.2198423494695889e-01 3.6541628236550103e+00 4.1825670497883340e+00 0 0 0
1376 1 2.8590886538892302e-02 1.9442964640157747e+00 2.7975532477794589e+00 1 1 0
896 1 -1.6690008690695508e+00 4.8183592641450286e+00 1.1070989885097324e+00 1 1 1
1039 1 9.3278444602206334e-01 3.9438678510852738e+00 2.0230671976514212e+00 0 0 0
2081 1 8.0573043309785657e+00 3.2700980146951601e+00 3.8200740017711112e+00 0 0 0
4281 2 8.4087060932338975e+00 2.1235132127304879e+00 6.0222423080180643e-01 1 1 0
2174 1 2.2346346525912182e+00 1.2434557441922257e-01 4.8719385605063648e-01 1 1 0
802 1 1.5992063695976833e-02 2.7928714593194646e+00 4.4410758285215213e+00 1 1 0
2737 1 8.5177790511420319e+00 6.3811761297838498e-01 3.5914995292636100e+00 1 1 0
1491 1 7.2003870433343664e-01 6.0310722530245187e-01 4.7068113115257413e+00 0 0 -1
779 1 -1.4028874667325630e+00 4.2851520896928639e+00 3.8298385926649976e+00 0 0 0
1513 1 4.4941913650764684e+00 4.8130285741661645e+00 5.9354576065777209e-01 0 0 0
4240 2 4.9400016289328885e-02 4.6685994699620110e+00 4.7426812875916258e-01 1 0 0
3040 1 8.4714129106687897e-01 4.5653543431300472e+00 1.9363340316087893e-01 1 0 0
2996 1 4.6877123196139747e-01 4.4725242077736178e+00 1.1741033202645792e+00 1 0 0
2538 1 7.7792028331699896e+00 2.2149382823996633e+00 1.1749910376459796e+00 0 0 0
1117 1 1.8494480784925633e+00 4.0604364645022493e+00 1.2663542068212427e-01 0 0 1
3128 1 7.8098535910988698e-03 2.9159753394491315e+00 3.1770137601613464e+00 1 0 0
548 1 3.3667621427307530e+00 3.5155859579211328e+00 4.5224634362869400e+00 0 0 0
558 1 -5.0279411464439161e-01 2.0672293410271996e+00 1.8608710169440938e+00 0 0 0
559 1 2.3116239650909232e-01 4.4367699505781566e+00 4.0818448043041693e+00 0 0 0
615 1 -6.1945514941597501e-01 3.1652779280880594e+00 1.7721403486069141e+00 0 0 1
2108 1 4.4658610589448315e+00 3.7585414979985252e+00 4.5976596891551118e+00 0 0 0
3606 2 8.7343835348042687e-03 2.7883781948600648e+00 2.2445757254037404e+00 0 0 0
2854 1 7.7276995461487630e+00 2.3471607121161284e+00 4.3552043302377834e+00 1 1 0
4228 2 3.0952123413897648e-01 2.5190857174513281e-01 2.2144225087393297e+00 1 0 0
2386 1 8.3164485602983174e+00 1.5481390789878058e+00 1.8459327119509450e+00 1 1 1
2063 1 7.5399276718379937e+00 4.1930613370650942e+00 2.7092514744266798e+00 0 0 0
975 1 6.7885174300197066e+00 1.9943709914742271e+00 4.7529198049187480e+00 0 0 0
3587 2 5.2600148094687071e+00 4.7726156662352022e+00 2.1551625437647153e+00 0 0 0
83 1 -8.7487586068039591e-01 2.6721573598077821e+00 2.7211708645973669e+00 0 0 0
171 1 -1.2919437067513884e+00 3.8764736921384149e+00 1.3051944316149102e+00 0 0 1
1132 1 1.7824505688784000e+00 3.6088240555346413e-01 4.7396674316472298e+00 0 0 0
3565 2 5.7880348264353252e+00 4.5457872953692622e+00 4.7610302547260979e+00 0 0 0
3918 2 8.8001655309065074e-01 9.2584059882850789e-01 1.5777351646243401e-01 1 1 0
889 1 5.0779512479344273e+00 1.6995703199061110e+00 4.7626671482384282e+00 1 1 0
1122 1 7.6746941544580709e+00 1.8498224073946270e+00 1.2873264197474801e-01 0 0 0
581 1 -9.2955124984221427e-01 3.6269123458342607e+00 1.0389587212053722e-02 0 0 0
986 1 -1.3098831563699436e+00 3.8047534090517856e+00 4.8125317248590003e+00 0 0 0
1984 1 8.2621784608926703e+00 2.1898719789412473e+00 5.3915571228440324e+00 0 0 0
186 1 2.4878379676853064e+00 4.3773635990125772e+00 8.2466167290293821e+00 0 0 0
1634 1 6.5169945099137490e+00 3.9371106780080698e+00 7.5947469270725376e+00 0 0 0
1504 1 4.8453114288379071e+00 4.5290364577621265e+00 5.2797364102278541e+00 0 0 0
275 1 -5.9273646611564410e-02 3.7486340537294582e-01 5.9466943934767142e+00 1 1 0
2039 1 7.2294179535639174e+00 3.3137178554904706e-01 5.2637742970393617e+00 0 0 -1
1531 1 5.8632772496186485e+00 7.8485458436868916e-01 9.5077491075832050e+00 0 0 0
3364 1 6.3052795069165013e+00 3.4427719821044866e-01 5.8551489723584558e+00 1 1 0
1184 1 4.2399847095525764e+00 4.4685379395784661e+00 6.1272375667246370e+00 0 0 0
2473 1 8.2755795518438671e+00 9.7383254396937324e-01 8.3748060079678996e+00 0 0 -1
4000 2 -1.0242615148549628e-01 4.7258709424604053e+00 7.2219785892383355e+00 0 0 0
538 1 3.4611933936435677e+00 1.1342317389120595e+00 6.5747283090646169e+00 0 0 -1
4177 2 2.3690383253142366e+00 2.0324107035933396e+00 5.2030875226538047e+00 1 1 0
1402 1 3.0948716588332932e+00 1.6395851807116898e-01 9.4038431431270073e+00 1 1 0
913 1 2.3455568834118101e-01 1.2496552310933979e+00 6.4967160164139219e+00 1 1 0
1681 1 7.2280625251109347e+00 2.6047733745140342e+00 5.4949262533239800e+00 0 0 0
3924 2 4.5273916787015720e+00 1.3975016789310146e+00 7.4178416384475030e+00 1 1 -2
1434 1 1.6515237746067248e+00 1.4660677580104586e-01 8.3766813571532168e+00 0 0 0
3752 2 8.0192795572890729e-01 2.0326938433872948e+00 5.1439005994318956e+00 0 0 0
526 1 6.5021688645369724e-01 1.2682940040773993e+00 5.5700121387902577e+00 0 0 -1
1080 1 1.7441353304677578e+00 1.5631439291579849e+00 5.7492943285606062e+00 0 0 0
3881 2 7.5778880358602905e+00 3.1976223033552218e+00 8.8901004073958365e+00 0 0 0
3839 2 7.5547080088026890e+00 7.5156932784608513e-02 8.0511405588438532e+00 0 0 0
4295 2 2.7095635682472746e-01 8.9627650806870984e-01 8.5585476048736542e+00 2 1 0
1498 1 1.3243756019687565e+00 9.1679811568454472e-01 6.4708022573831698e+00 0 0 0
1683 1 2.7226358643286392e+00 1.5106490121120839e+00 6.0279494242915828e+00 0 0 0
1199 1 3.3439993436101876e+00 1.9582946646510302e+00 5.1729170594857150e+00 1 1 0
4081 2 2.4320412584522528e+00 3.9396281919626372e+00 9.1676990632221145e+00 0 0 -1
3793 2 6.5180652591076385e+00 2.4394685880307171e-01 9.3296158905668101e+00 1 1 -1
1349 1 4.3109921728862970e+00 9.7421671376176810e-01 5.8958968980069608e+00 1 1 0
4122 2 4.9105477226825895e+00 1.0721672813113299e+00 5.3443910251138087e+00 0 0 0
971 1 7.3047884172355904e+00 3.9082737666635508e+00 9.4636985609278828e+00 0 0 -1
1654 1 5.2440546889315787e+00 1.7526440028367747e+00 6.0256708964916319e+00 0 0 0
1907 1 5.2659301220977959e+00 6.3815512084370696e-01 6.1732688423428508e+00 1 1 0
2102 1 8.4460535480529888e+00 2.4495369126407374e-01 7.6820786342160226e+00 0 0 0
4175 2 7.5793064710482874e+00 1.7910334547330062e+00 7.8951404834654086e+00 1 1 0
626 1 6.0735847940437326e-01 2.5814611136878796e+00 7.0235938922021743e+00 0 0 0
1955 1 6.4405010923502903e+00 4.0223914177157249e+00 6.5122736824329550e+00 0 0 0
933 1 -5.5409609835442231e-01 3.5252272330349559e+00 8.6821967649574869e+00 1 1 0
1644 1 5.5467053885020938e+00 3.6772608792680819e+00 4.8567855702233302e+00 0 0 0
1407 1 7.6773589085677365e+00 2.3985045540715642e+00 8.8016083042336533e+00 1 1 0
370 1 5.9569134523994893e-01 2.4841609675118001e-01 8.0285702782170016e+00 1 1 0
1142 1 4.6219847036834825e+00 4.3720548895920670e+00 9.0212944184453452e+00 0 0 0
2753 1 7.5455177128007680e+00 8.7168615986581321e-01 7.6489712299215551e+00 1 1 0
1212 1 7.8646852462432122e+00 7.8155910910517845e-01 9.4915952806903974e+00 1 1 -1
1098 1 5.8762339294017849e+00 2.6327970875238527e+00 9.6424872233655687e+00 0 0 0
1095 1 5.8435628181321215e+00 2.1341833245977844e+00 7.8101716041570342e+00 0 0 0
4220 2 6.0537374024013930e+00 1.3185976566208619e+00 7.3149891526052544e+00 0 0 -1
1180 1 4.2900178625778995e-02 2.4642446076278719e+00 5.4422335352416722e+00 0 0 0
3518 2 1.7096164669363410e+00 1.4442036474214065e-01 6.4358949629414717e+00 1 1 0
1114 1 1.5316875753836157e+00 2.4613369617171235e+00 5.3005794806735427e+00 0 0 0
1187 1 2.3067767722908732e+00 2.4777446654553956e+00 6.0726130997060768e+00 0 0 0
659 1 1.3608254970154330e+00 3.1380262748243624e+00 6.0945348491332210e+00 0 0 0
3713 2 2.1392163246002869e+00 3.1905752929644438e+00 5.6472712973659380e+00 0 0 0
698 1 8.7152410748107767e-01 2.1730244382910913e+00 6.0176542948745695e+00 0 0 0
1177 1 2.7480432510802739e+00 2.8017294135230011e+00 5.1245826633220881e+00 0 0 0
1853 1 3.5699950860935581e+00 2.3274235363419398e+00 6.1395686058701200e+00 1 1 1
3123 1 3.1799264308230102e+00 3.2260205404167066e+00 5.9581383539040642e+00 1 0 0
3577 2 4.2635145172303481e+00 2.8039334833006886e+00 6.0195425520921022e+00 0 0 -1
1361 1 6.8134009824388766e+00 2.2114473398376369e+00 8.2756254225599637e+00 1 1 0
1647 1 4.4167304168943220e+00 2.0229163086384263e+00 5.5471508678162715e+00 0 0 0
1049 1 5.2988807011845873e+00 2.5297322957594410e+00 5.3650591973292148e+00 0 0 0
2196 1 5.7800577199279362e+00 3.3405538410296840e+00 5.9046351288796428e+00 1 1 -1
1153 1 4.9033890639641324e+00 2.6625566900454363e+00 6.5476273481811980e+00 0 0 0
1171 1 6.6540155965676098e+00 3.6543994003969775e+00 5.4298332329447421e+00 0 0 0
1676 1 3.9530332208353371e+00 2.9479694814751576e+00 5.1637266338020291e+00 0 0 0
2161 1 7.2657446924856339e+00 3.4786690949323908e+00 7.0103453360661403e+00 0 0 0
1099 1 4.7986466606262823e-01 4.5507289422967157e+00 6.5778475154210652e+00 0 0 0
227 1 1.7028340808929336e+00 3.8393390301641754e+00 8.7686990627392820e+00 0 0 0
2042 1 7.3113904998679171e+00 6.7865643263556974e-01 6.2038504546784283e+00 0 0 0
621 1 2.1433830215514154e+00 5.1996484204682636e-01 5.7460895955371676e+00 0 0 0
1021 1 5.8366188246396771e+00 3.6660535454138583e+00 9.1180578968607460e+00 0 0 0
1640 1 5.1042059707016367e+00 2.5008947107019610e+00 8.5538270415826965e+00 0 0 0
784 1 5.2649634283032434e+00 1.2378265430039108e+00 7.0198871266381584e+00 1 1 0
2060 1 7.7521087896393865e+00 2.6768597034148547e+00 6.6101924371543914e+00 0 0 0
1093 1 1.6569055620206969e+00 4.0336992709603710e+00 5.5893311386538223e+00 0 0 0
3787 2 4.5240711081790561e+00 4.0366099656999150e+00 7.0741813268142213e+00 0 0 0
2088 1 2.6609814471638655e+00 3.8020012312403568e+00 5.2500087922367182e+00 0 0 0
127 1 2.2595733145249826e+00 3.6027659872569293e+00 6.3740838719372785e+00 0 0 0
3749 2 5.8877896823077744e+00 4.0454159979602480e+00 8.1824378049112596e+00 0 0 0
1085 1 3.7044383722617047e+00 4.0640228934780298e+00 5.3623124872811525e+00 0 0 0
3016 1 3.1130089672569383e+00 4.2360645287278400e+00 6.2786591247829140e+00 1 0 0
1078 1 4.0774800450640942e+00 2.6221612840787532e+00 8.1428890935095577e+00 0 0 0
1030 1 4.7249917170994458e+00 3.4745124727448888e+00 5.6257066619846396e+00 0 0 0
1107 1 1.6734600250050002e+00 7.2027638987142106e-01 9.3775745238124451e+00 0 0 0
1115 1 5.1582307873055431e+00 4.0035104873140517e+00 6.4219847969692587e+00 0 0 0
1635 1 6.9938024408154202e+00 1.9329995529694961e+00 6.4185751937580147e+00 0 0 0
3634 2 5.4072577791042704e+00 2.8421578633521358e+00 7.8134033354024055e+00 0 0 0
2115 1 8.4507163741801428e+00 2.0619245637463979e+00 8.1006312077321567e+00 0 0 0
624 1 4.1937731002624972e+00 2.4345253152539317e+00 9.1650426919917738e+00 0 0 0
3738 2 5.9349592803785880e+00 4.9453134933904108e-01 6.7360123765074515e+00 0 0 -1
1183 1 2.8694059334514543e+00 3.3948165725463233e+00 8.5953198295089326e+00 0 0 0
2043 1 6.8650162667402794e+00 1.7026982244089561e+00 7.3941581494314814e+00 0 0 -1
3849 2 3.4607388194302486e+00 2.7892119715066452e+00 8.7584478968749817e+00 0 0 0
1453 1 2.8072539977145983e+00 2.2731322024420950e+00 9.0493301890351319e+00 0 0 -1
3718 2 8.2846973379533324e+00 1.7376117705349983e+00 8.8582894292677459e+00 -1 0 -1
3609 2 7.3313237457882252e+00 4.6112530999799395e+00 8.8828140619995875e+00 0 0 0