LAMMPS data file via write_data, version 12 Dec 2018, timestep = 125400

4320 atoms
2 atom types

0.0000000000000000e+00 1.9309999999999999e+01 xlo xhi
0.0000000000000000e+00 1.9309999999999999e+01 ylo yhi
0.0000000000000000e+00 9.6549999999999994e+00 zlo zhi
3.6688999999999989e+00 0.0000000000000000e+00 0.0000000000000000e+00 xy xz yz

Masses

1 1
2 1

Atoms # atomic

508 1 6.1165540064839945e+00 4.7002865406398762e+00 2.8958023383545646e+00 0 0 0
3565 2 8.4005221868292299e+00 4.6424059466041889e+00 4.6421427984185080e+00 0 0 0
3085 1 6.4771367884456388e-01 3.0829613435189467e+00 4.6421544212603089e-01 1 0 1
1218 1 5.6205919650145264e-01 4.4816248344777410e-01 1.1596682632174413e+00 0 1 0
3622 2 1.3562104183905197e+00 7.2654750169108107e-01 6.8029781427937697e-01 0 0 1
1870 1 8.8449332107799243e+00 1.6695372249517018e+00 3.9687330494728285e-01 0 1 1
967 1 6.3942377669734274e-01 1.3296733507958647e+00 5.1736094393160514e-01 0 0 0
3205 1 1.5955459979437634e+00 1.5586361844734429e+00 8.8447588984118541e-01 1 1 0
1544 1 9.5416492599711997e+00 2.4939322871878415e+00 5.9773331865022883e-01 0 0 0
851 1 2.4424823687827000e+00 8.9731822589657295e-01 4.2401816066891795e-01 0 1 0
253 1 2.9136608524435887e+00 2.8307471631439657e-01 1.1724017588359570e+00 0 1 0
1190 1 3.3256367542884879e+00 1.3428722362153862e+00 1.0624805670839121e+00 0 0 1
3918 2 3.0499253985128743e+00 1.4992606829036659e+00 1.6101578120372806e-01 0 1 0
4250 2 1.8877958134242185e+00 4.5599889314612989e+00 4.1413391160842608e+00 1 0 1
1127 1 3.5091590794715231e+00 7.0296942966207021e-01 3.4821022748909397e-01 0 0 1
1554 1 4.3852870244524293e+00 1.2322869202042008e+00 9.1231297564147018e-01 0 0 1
655 1 5.1460828730672636e+00 4.7962006952458749e+00 2.3969481627024263e+00 0 0 1
95 1 4.9270531848619505e+00 6.0032414998327654e-01 1.5684313426643692e+00 0 0 0
2174 1 5.1329231544296663e+00 5.1377987459145358e-01 5.4649098361125736e-01 0 1 0
2468 1 1.0097398793032479e+01 3.2556404598313775e+00 1.0535057759525679e+00 0 0 0
870 1 5.2080677238165984e+00 1.7590042599280762e+00 1.3886280392596446e+00 0 1 1
1798 1 5.9853954584467024e+00 1.1252643211341020e+00 9.3018557657927958e-01 0 1 0
2689 1 9.6353700310583239e+00 2.3135394481131479e+00 2.7174408578924241e+00 0 0 0
906 1 8.8330349065190319e+00 3.0174854082097511e+00 2.3104770841517341e+00 0 1 0
1615 1 6.9706893257965135e+00 1.6641578800896790e+00 9.4851493955342436e-01 0 0 1
1458 1 6.9554660458080120e+00 5.5978375107602507e-01 9.5536920757679111e-01 0 0 0
3793 2 7.6070064700189288e+00 8.7603862216850059e-01 3.2786216458067746e-01 0 1 0
767 1 7.9644380538008619e+00 7.7424843277577116e-01 1.1059962145519728e+00 0 1 0
1359 1 7.7679590942466339e+00 1.7549743988146105e+00 2.5280200500986361e-01 0 1 1
3468 2 7.8520891190690678e+00 1.7014811820685118e+00 1.0807799716618594e+00 -1 0 1
2962 1 6.5898527900069337e-01 2.3121940256822842e+00 2.3725935184699218e+00 1 0 0
1671 1 9.7417163459635479e+00 4.2374087459727336e+00 8.8752426991621147e-01 0 0 1
548 1 5.9502273549897584e+00 3.3648892353106086e+00 4.6947892756360510e+00 0 0 0
3771 2 9.5530261149532159e+00 4.0086530535148786e+00 3.6722425958615799e+00 0 1 -1
1505 1 4.5055985260479794e+00 4.4615821688833082e+00 3.8298001219490789e+00 0 0 0
1526 1 4.4201169543521424e+00 3.3306152869601067e+00 4.7986379859602390e+00 0 0 0
254 1 1.1398150504555793e+00 2.5226149511647757e+00 1.2773729836792322e+00 0 1 0
2960 1 5.0656882451414109e-01 1.5360612344274442e+00 1.6221346921596262e+00 1 0 0
2201 1 8.7043895865209890e+00 4.5757805063898660e+00 1.0837775908566210e+00 0 1 0
3599 2 1.4301307512202759e+00 3.1012188657378883e+00 7.0268928334545866e-01 0 0 0
622 1 2.0864269456241069e+00 2.4952714219965273e+00 7.5054550012981736e-01 0 0 1
3750 2 2.4638620697310762e+00 1.7321548556662292e+00 8.5015830795512315e-01 0 0 1
34 1 3.1106206804383980e+00 2.2366537871509102e+00 6.3401709529814276e-01 0 0 0
1065 1 2.7159500175094422e+00 2.2692130828225663e+00 1.5725772521308827e+00 0 0 0
968 1 4.4675509401052018e+00 2.3441847141898058e+00 6.2377269826827841e-01 0 0 1
3708 2 4.3111835205199869e+00 1.9371019037824397e+00 1.4369600466839756e+00 0 0 0
1166 1 3.7966793547933033e+00 2.6469295844057137e+00 1.3454823125618425e+00 0 0 1
3768 2 4.1991375813751688e+00 3.1882328905730146e+00 6.2886775456169863e-01 0 1 0
529 1 2.0580727053342636e+00 4.4931198306784079e+00 3.1973358472807787e+00 0 0 0
3757 2 6.1730126805591015e+00 1.9917741775850719e+00 1.1627423750226300e+00 0 0 1
1764 1 5.5780796726725264e+00 2.6491107165034884e+00 8.2906600015749587e-01 0 1 0
1617 1 6.5859963374972521e+00 2.7209204037996182e+00 9.5852845689462340e-01 0 0 1
1785 1 7.9363530108373022e+00 4.6664201500997599e-01 2.3097945539100375e+00 0 1 0
1499 1 7.5734988267746957e+00 2.6426778387582712e+00 9.4836646016271942e-01 0 0 1
4116 2 3.9028962913083776e+00 1.0744461399190051e+00 1.6562651051417219e+00 1 0 -1
1484 1 6.9564847968565280e+00 2.1630083985412629e-01 1.9463801767654556e+00 0 0 0
10 1 7.1377789748736442e-01 2.9436738142249053e-01 1.8075399421285210e-01 0 0 1
1696 1 7.5909963716420146e+00 4.7757093897615164e+00 4.3703081486302375e+00 0 0 0
2076 1 8.5854416307682779e+00 2.2546056303889110e+00 2.9649115319284687e+00 0 0 1
2064 1 1.2468267235907509e+00 2.1644695180838522e+00 1.7506360420400105e-01 1 0 1
1724 1 8.9776099007676837e+00 3.3788651834084991e-02 3.9973177897603240e+00 0 1 0
1897 1 9.4237173701348969e+00 4.8300362086010379e-01 1.7983282844290760e+00 0 1 1
171 1 1.1975583233252769e+00 3.7991290585653954e+00 1.1258528009758186e+00 0 0 1
4299 2 3.6693659817330909e-01 1.5129737742966447e+00 3.2607254572676623e+00 1 1 1
50 1 4.4723269723177470e+00 4.7364323889558744e+00 1.4946361075485930e+00 0 0 0
656 1 3.3150609855427846e+00 3.3438618214952318e+00 5.2985604921111573e-01 0 0 1
2996 1 3.0654631900547971e+00 4.3202010569265763e+00 1.2614840639148317e+00 1 0 0
717 1 2.1790771616095226e+00 3.5400234194403359e+00 7.6816930514953174e-01 0 0 1
1538 1 9.2904655472795152e+00 1.4252611771602799e+00 3.2294232246191950e+00 0 0 0
668 1 2.9268130168837327e+00 3.2826054903143072e+00 1.5419516697236204e+00 0 0 0
124 1 5.1694314936321506e+00 3.9174930955770586e+00 4.3043574144956454e+00 0 0 0
3764 2 8.6007134026473882e+00 6.9976521804291214e-01 1.7604558680639946e+00 0 1 -1
1019 1 4.9337579084649832e+00 3.5163758686822115e+00 9.8979425550510358e-01 0 0 0
1198 1 4.0241167948475036e+00 3.8672535769451528e+00 1.2230445520101600e+00 0 1 0
3627 2 4.8522834827138723e+00 4.3797434718529500e+00 7.0502685858612102e-01 0 0 1
2159 1 1.0274185464741528e+01 4.2886683978947904e+00 4.0825381328164649e+00 0 0 0
115 1 1.8596895711388528e+00 2.4005612566362566e-01 1.1605405360422734e+00 0 0 0
567 1 6.0942597567444583e+00 3.6181336690113914e+00 1.0728028613989673e+00 0 0 0
669 1 5.4274574660463948e+00 4.4070123240473036e+00 1.3658103092486373e+00 0 0 1
3865 2 6.0916286135522997e+00 4.4353630366152172e+00 7.3290107370601343e-01 0 0 0
1051 1 5.4912156372931538e+00 3.9651507551125635e+00 2.1528765238885794e-01 0 0 0
2098 1 6.5823391804965610e+00 3.9016815843729344e+00 2.2058705491132524e-01 0 0 1
1858 1 8.5409137251848062e+00 1.8723198247591903e+00 4.4357039676820218e+00 0 1 0
3799 2 1.0308040063284525e+00 3.8378487564560109e+00 2.3992652768317022e-01 0 1 0
503 1 8.3136081010168610e+00 3.5726816037706541e+00 8.8917128496171050e-01 0 0 0
1506 1 7.1120942746392046e+00 3.6180019560369869e+00 1.0447550111794064e+00 0 0 0
1564 1 8.0284325916023427e+00 4.3479006818783628e+00 2.9005990163547246e-01 0 0 1
1572 1 7.7810677600806128e+00 4.4084686682476377e+00 1.4410458345257258e+00 0 0 1
4129 2 9.5969102871014638e+00 4.7227739979060619e+00 2.7657524831629470e+00 1 0 1
1455 1 9.0378254722005238e+00 2.6913617674624862e-01 2.8740665889851273e+00 0 0 0
4208 2 1.7341283502316782e+00 2.9529893886224343e+00 4.5393977521477069e+00 1 0 0
1470 1 9.1689282026891963e+00 3.5240712466568702e+00 1.4469097325268434e+00 0 0 0
3635 2 9.7035747833940604e+00 4.1393821061596786e-01 4.4224029724191407e+00 0 0 1
2108 1 7.2338855401253834e+00 3.8026288466612836e+00 4.6637704915058578e+00 0 0 0
520 1 1.3486607449113246e+00 9.4641921533693485e-01 1.7883252602024633e+00 0 0 0
3167 1 5.0531558714721381e-01 5.7231015869435853e-01 3.0954099565031306e+00 1 0 1
715 1 1.5607741845672112e+00 5.9067603464833607e-01 2.7774137069952647e+00 0 0 0
2250 1 9.3405438438858237e+00 2.3603759682888956e+00 3.8546696904726265e+00 0 1 0
1000 1 2.3683822806935368e+00 1.1632542547924416e+00 1.5230774248354857e+00 0 0 0
4214 2 2.0316688237026406e+00 1.2014857480395686e+00 2.3755350925837568e+00 1 0 0
817 1 2.3574150851078617e+00 3.0332255210130410e-01 2.1817621655357975e+00 0 1 0
159 1 3.2177036223085786e+00 9.0009417574285444e-01 2.0713866223845190e+00 0 0 0
992 1 2.5996971145639147e+00 9.5703709524307035e-01 2.9812628753901524e+00 0 0 0
1098 1 8.5637473508650324e+00 2.6136424703234398e+00 6.7732813331207203e-02 0 0 1
1134 1 3.6791697973287878e+00 1.1381026695930381e+00 2.9809483829407166e+00 0 0 1
1040 1 4.5381818279956194e+00 1.3901110862062978e+00 2.1602915204251021e+00 0 0 0
1358 1 4.1739186723844952e+00 4.4468980403296249e-01 2.3052647141302445e+00 0 1 1
1783 1 5.2001642444684215e+00 6.5690282043903736e-01 2.7714456627728650e+00 0 1 0
3878 2 5.3743907788293708e+00 1.3035746253979148e+00 2.0889954247174862e+00 0 0 1
631 1 4.7622410777576158e+00 1.4799757359762127e+00 3.2358779940603628e+00 0 0 0
3756 2 6.6845073998184290e+00 9.9092516643272455e-01 1.6159804568065808e+00 0 0 1
1357 1 5.9859191303969945e+00 6.1566152109532013e-01 2.0203728931212623e+00 0 1 1
575 1 5.9449411534239136e+00 1.4798722494793601e+00 3.0804949590024586e+00 0 0 0
722 1 6.1343149210374257e+00 1.6796019481248576e+00 2.0148826735539127e+00 0 1 0
1147 1 6.8007868735202024e+00 1.0570241486715930e+00 2.5813407152148531e+00 0 0 1
1351 1 7.5145794422032663e+00 1.3208651204071999e+00 1.8602254874755637e+00 0 1 0
3775 2 7.8021597360708883e+00 1.0945699530085684e+00 2.8915583254009571e+00 0 1 0
4240 2 2.5779323641689813e+00 4.5372568874044061e+00 4.6926706729727463e-01 1 0 0
3688 2 2.8461680822159900e+00 3.9589299133415023e+00 4.7884603643318862e+00 0 1 0
3503 2 8.4407565689486024e+00 2.5435235925256237e+00 3.8642444682957007e+00 -1 0 2
1906 1 7.0966461631493933e+00 8.1285252360099469e-01 4.6742202228374099e+00 0 1 0
263 1 1.1174703843389626e+00 4.7648448470367999e+00 2.7443702041799729e+00 0 1 -1
4042 2 3.7035224442482932e+00 7.1001394808193741e-01 4.4697668633749155e+00 0 1 0
1622 1 8.4988188167139764e+00 4.2689609776460031e+00 3.7995255148969820e+00 0 0 0
431 1 1.0063987395607721e+00 1.4550490399534095e+00 2.6128530953509861e+00 0 1 1
558 1 1.7509908138772365e+00 1.9742552195406968e+00 1.9376992254888961e+00 0 0 0
1818 1 6.0110700827794847e+00 7.4061506086544868e-02 3.0057362185505623e+00 0 1 1
83 1 1.6105927226653267e+00 2.6859001506068951e+00 2.7040046689966997e+00 0 0 0
166 1 1.9253971950674866e+00 1.7539666705446115e+00 3.0711572557808831e+00 0 0 0
1376 1 2.7483262274194580e+00 1.8791795928076986e+00 2.4851030463817629e+00 0 1 0
3606 2 2.4653010108579392e+00 2.7753854087133716e+00 2.3099515742150447e+00 0 0 0
2941 1 3.3406403620167584e+00 2.7989304018055110e+00 2.3374937231397088e+00 1 0 0
3608 2 3.5878583953417129e+00 2.0064689841622605e+00 2.9228431576923386e+00 0 0 0
3128 1 2.5968068554248056e+00 2.8849925319804268e+00 3.2419811004023886e+00 1 0 0
555 1 3.6311550556708196e+00 1.8781810156973655e+00 1.9490983193809759e+00 0 0 0
505 1 4.7813897225964919e+00 2.7441858989026668e+00 1.6576244998809031e+00 0 0 0
663 1 4.2828580117214576e+00 2.3394995485055392e+00 2.6062896821604786e+00 0 0 0
3686 2 4.0038340666314793e+00 3.2913505946056896e+00 1.8794416106172374e+00 0 1 0
1446 1 5.1551618977799354e+00 3.1020965195071275e+00 2.6564538539296629e+00 0 0 0
568 1 5.2366777878631448e+00 2.0661774512572366e+00 2.4952087880178881e+00 0 0 0
3703 2 5.4822489405388728e+00 3.3920513599978368e+00 1.6728153500032035e+00 0 0 0
3533 2 6.6479916011796840e+00 1.8804430140706174e+00 2.7762629559192864e+00 0 1 0
1462 1 5.9334755808003985e+00 2.6689944958711140e+00 1.7787035288380320e+00 0 0 0
1511 1 6.1217564930067283e+00 2.7186862585531877e+00 2.8064843835570068e+00 0 0 0
1561 1 6.7701663375933485e+00 3.3291237300794387e+00 1.9745794872373936e+00 0 0 0
2197 1 7.5294107492466411e+00 1.9211058022379917e+00 2.7468713601177561e+00 0 1 0
566 1 6.9833226657950167e+00 2.3001591060488060e+00 1.8392727801372923e+00 0 0 0
1437 1 7.7644376933338437e+00 3.1786445543871791e+00 1.8878043442607992e+00 0 0 0
2101 1 8.0670580126276494e+00 2.1900743420700666e+00 1.8194350323148405e+00 0 0 1
3946 2 7.9175313349220477e+00 2.7219607176736478e+00 2.5772354725794306e+00 0 1 0
1721 1 7.2388715822197005e+00 2.9169376229069868e+00 3.0933321752295413e+00 0 1 0
2421 1 8.2282227277170144e+00 3.2849797336955389e+00 3.2006445008876812e+00 0 0 0
3478 2 4.7307558426692220e-01 2.2570015209987933e+00 7.2758042184853522e-01 0 0 -1
242 1 4.0303218221431774e+00 2.4768125753984449e-01 1.2028810255571112e+00 0 0 1
599 1 3.6566198831513055e+00 2.8302052073118339e-01 3.7240746543361989e+00 0 0 0
991 1 8.6366626719176214e+00 1.2402363309555264e+00 2.5104145983212449e+00 0 0 0
2145 1 9.8584826183912337e+00 3.2674747934834110e+00 3.3574805397565801e+00 0 0 0
1689 1 9.7663803218956620e+00 3.3588430902141426e+00 4.4627023542098874e+00 0 0 0
615 1 1.9121211966412521e+00 3.1001565227100780e+00 1.7007030826355911e+00 0 0 1
3028 1 9.2982525499285562e-01 3.2757695109269096e+00 2.0073555097578351e+00 1 0 0
3610 2 9.1828559612335758e-01 3.9265022303581558e+00 2.6311996466630894e+00 0 0 0
636 1 1.6007689557054947e+00 4.0844735568770778e+00 2.1488647316192324e+00 0 0 1
724 1 6.1070534479041090e+00 5.1530187942288608e-01 4.7565884160722698e+00 0 1 0
1682 1 7.4477701499614053e+00 3.9836254687145307e+00 3.6220955393858674e+00 0 0 0
1039 1 3.4943112260105758e+00 3.9284535014142832e+00 2.1392127811682715e+00 0 0 0
4238 2 2.3244655006260757e+00 3.9001550891110242e+00 1.5726248885603433e+00 1 0 0
3619 2 3.2593213755517110e+00 3.4733354912931604e+00 2.8520243853755298e+00 0 0 1
586 1 2.4622966399160671e+00 3.6088475993686435e+00 2.5019233299649573e+00 0 0 0
1022 1 3.1161237599766931e+00 4.4812275471930363e+00 2.9810924891250599e+00 0 0 -1
1160 1 8.7957753898195161e+00 1.5906608484789952e+00 1.5355949216444822e+00 0 0 0
1440 1 4.0965005289767866e+00 3.4520569758782660e+00 2.7792898049047157e+00 0 0 0
664 1 4.7096201743440549e+00 3.8378064748062815e+00 1.9827673032280084e+00 0 0 0
3040 1 3.4281033557319818e+00 4.3090761126178778e+00 2.8435103878952234e-01 1 0 0
574 1 3.7013739640567858e+00 4.0858228508974044e+00 4.6102664966735114e+00 0 0 0
994 1 5.3595529222411020e+00 4.0510545263305273e+00 3.2825415315309914e+00 0 0 0
1428 1 6.5670655345593074e+00 4.3466639493105177e+00 1.7199020407154384e+00 0 0 0
1472 1 9.3028986699161145e+00 4.4174310641186700e+00 1.9569228725680845e+00 0 0 0
534 1 6.4708747274105249e+00 3.6969566312139022e+00 2.9882051449716496e+00 0 0 0
1271 1 5.7583381847945523e+00 3.8849309684630922e+00 2.2957941405323896e+00 0 1 0
952 1 8.7030143279064465e+00 2.6392143076346479e+00 1.1814407154725450e+00 0 0 0
3838 2 6.9285661246450942e+00 4.3811821750437066e+00 3.0265380503686741e+00 0 0 0
2946 1 8.9384042450671863e+00 6.4178780706780103e-01 8.5026278537632560e-01 0 0 0
1072 1 8.4081292540929446e+00 3.9385927390988571e+00 2.1836436558617178e+00 0 0 0
1535 1 7.3640746550486211e+00 4.0291980785612456e+00 2.4240292537472232e+00 0 0 0
3964 2 7.9871626343012556e+00 4.1049847311987708e+00 2.9765249583444859e+00 0 1 0
3127 1 3.5472528984297460e+00 3.7838681705089581e+00 3.5211951036551006e+00 1 0 0
3602 2 7.4659268455083669e+00 5.5735686324372757e-01 3.7976000130082945e+00 0 0 0
966 1 3.1691509940515967e+00 1.1954384557434987e-01 2.8321314974297764e+00 0 0 0
1425 1 8.9397278001637943e+00 3.3448963561402150e+00 3.8895487078941700e+00 0 1 0
689 1 3.5229570102257479e-01 5.8635406337381091e-01 4.1885345919613677e+00 0 0 0
976 1 6.5875531783315502e+00 2.2637733030205073e-01 3.9611220763845600e+00 0 0 0
3460 2 9.1452717563707697e+00 2.9067540137160308e+00 3.1424740818599060e+00 -1 0 0
962 1 2.4594621263261658e+00 4.5938766786056977e+00 2.1367327765431225e+00 0 0 0
194 1 1.3371310861890937e+00 3.0421856025493860e-01 4.6679994751578153e+00 0 0 0
3855 2 1.0587573132070152e+00 2.3890207710034572e-01 3.7298706826113466e+00 0 0 0
3192 1 1.0899234417407517e+00 1.2430009737893488e+00 3.6747722219440502e+00 1 0 0
3676 2 8.9075120992276258e+00 2.1633680062499265e+00 2.1304752030016605e+00 0 1 1
987 1 6.1250902059394257e+00 1.9242242882183942e+00 3.1629865689922920e-01 0 0 0
1584 1 1.8839458550708252e+00 6.3072619741398905e-01 3.8165078168056517e+00 0 0 0
3464 2 2.7716813132330334e+00 2.2890437031548289e-01 3.5958183563324337e+00 0 0 -1
652 1 2.8626671357323472e+00 9.9148771195229779e-01 4.0580784658903992e+00 0 0 0
4063 2 9.7080569865384234e+00 7.8401357536210670e-01 2.6143479341247287e+00 0 1 1
1402 1 6.1934097772547476e+00 3.3510394006959193e-01 1.3408858316808797e-01 0 1 1
4264 2 4.4102433201744651e+00 6.2403813526256346e-01 3.0997251347090109e+00 1 0 1
1054 1 4.6295728023546285e+00 7.3687638753448415e-01 3.9743109004638595e+00 0 0 0
481 1 3.9146259030698340e+00 1.5783798980803800e+00 3.8562189286427122e+00 0 0 0
235 1 5.2704088920554453e+00 1.5186973438599278e+00 4.3256710099583664e+00 0 0 0
1117 1 4.3859647263620234e+00 4.0084693382044030e+00 9.1682145401227419e-02 0 0 1
3856 2 6.4958153326238017e+00 7.4359056613239960e-01 3.3274876290889774e+00 0 0 0
2360 1 6.3408169991599959e+00 1.2985876452767982e+00 4.1212681928157648e+00 0 1 0
30 1 6.4109996380702770e+00 4.0752844094607150e+00 4.0465413547451732e+00 0 0 0
1651 1 8.0909710392516523e+00 2.2511199188164641e-01 3.3670444608491357e+00 0 0 1
1950 1 8.3219704992226564e+00 1.4198073673153102e+00 3.5760495261078056e+00 0 0 0
4029 2 7.7189761034442110e+00 1.4383339197233083e+00 4.2401659444544464e+00 0 1 0
580 1 7.2512639994088373e+00 1.2943024756585348e+00 3.5132118612020307e+00 0 0 0
878 1 8.2359630936518062e+00 7.1348499758386208e-01 4.3329801537858268e+00 0 1 0
1103 1 9.1969776853743461e+00 1.0816373382603404e+00 4.2023979870667674e+00 0 0 0
4044 2 1.0416939361574871e+01 4.7991847773861158e+00 3.4325661081969745e+00 0 1 0
3588 2 2.4710573362404409e+00 3.8129800615345646e+00 3.4185044089682775e+00 0 0 0
550 1 4.1525250073041899e+00 4.5916274172465901e+00 2.7564122367300450e+00 0 0 0
1519 1 9.6016969026689711e+00 1.4708550285892898e+00 2.1237645759551067e+00 0 0 0
1711 1 9.2539897218019771e+00 3.4632847598823417e+00 3.8178058878403220e-01 0 1 0
559 1 2.7684348779265839e+00 4.4226363803481448e+00 3.9676348486352371e+00 0 0 0
1001 1 7.5377787019449825e+00 3.3211742651056522e+00 4.0436859360396975e-02 0 0 0
3080 1 7.6499841732030194e-01 2.2366544756216715e+00 3.3863862938022882e+00 1 0 0
3480 2 1.1904893498057141e+00 2.0037564221169273e+00 4.0995182998832025e+00 0 0 0
700 1 8.5961306466584586e-01 2.8114915629403385e+00 4.3000864799701493e+00 0 0 0
288 1 1.7208105094323163e+00 2.6271706449088561e+00 3.7649540825994228e+00 0 1 0
2063 1 1.0244463487389122e+01 4.1506196302684142e+00 2.8200084062393307e+00 0 0 0
543 1 2.0048888632266557e+00 1.6599341522892721e+00 4.1609486875751278e+00 0 0 0
1165 1 2.9259707122678082e+00 1.8984767941639196e+00 3.5065557401949601e+00 0 0 0
802 1 2.8676404356642031e+00 3.3913658091191339e+00 4.2164622423307661e+00 0 1 0
572 1 3.6852275024505436e+00 2.7503460616800917e+00 3.3701082837715490e+00 0 0 0
1167 1 3.6115395334732083e+00 2.4800175245501079e+00 4.4002802280162143e+00 0 0 0
1242 1 5.1382920949526074e+00 1.6181435916631099e+00 3.1998501211280794e-01 0 1 0
3719 2 3.8856280259578639e+00 3.3332288719350491e+00 4.1435998492450308e+00 0 0 -1
4119 2 4.4905436400306593e+00 2.3215682661671675e+00 3.4076545498677815e+00 0 0 0
1007 1 4.6251701775384735e+00 2.2321313667948863e+00 4.2589927217675854e+00 0 0 0
2164 1 4.6141652618942608e+00 3.1746229082978585e+00 3.6996902803542944e+00 0 0 1
3884 2 5.2309026925174296e+00 2.9262098331219004e+00 4.2657059888184055e+00 0 0 1
1062 1 5.4020904617420031e+00 2.3575393190147116e+00 3.5594069071380057e+00 0 0 0
1194 1 6.5265749373104800e+00 2.1817690654759057e+00 3.6077613465385374e+00 0 1 0
814 1 6.0319379427845163e+00 2.3499861763995469e+00 4.5613986804370263e+00 0 1 0
1081 1 5.9136351794566915e+00 3.2251400658360949e+00 3.6705305914385056e+00 0 0 1
860 1 6.7933146201474148e+00 2.9955064229418213e+00 4.1263658436113948e+00 0 1 1
500 1 5.9247096691478998e+00 8.2156124551750739e-02 1.0825193883178394e+00 0 0 0
1678 1 9.2049345440752859e+00 3.8637323719279499e+00 2.8822837302814932e+00 0 0 1
1071 1 7.0080043554102325e+00 1.8708832603396752e+00 4.5615025564491862e+00 0 0 -1
1573 1 7.6322787176339739e+00 2.2527426096991152e+00 3.7595225449536800e+00 0 0 0
537 1 7.8194912208164764e+00 3.1766493836670024e+00 4.1830137613700122e+00 0 0 0
1018 1 1.9808405528243322e+00 4.5774252914060289e+00 1.1085462812345122e+00 0 0 0
4041 2 8.7437276338774392e+00 7.2214124229264121e-01 3.5893326454391206e+00 0 1 0
2513 1 9.7279025698384043e+00 1.4126602799757786e+00 9.7160900528241889e-01 0 0 0
386 1 5.6376396342154207e+00 6.8815527449915537e-01 3.7347550178373776e+00 0 1 0
177 1 1.5632730767013587e+00 3.5942677149337845e+00 3.1138065694370791e+00 0 0 0
57 1 1.0559547930598550e+00 1.3052485076352831e+00 4.7706615853128929e+00 0 0 0
232 1 1.9251184424277690e+00 3.7337269270863316e+00 4.1022452365592397e+00 0 0 0
779 1 1.1106964615291146e+00 4.3101109120319094e+00 3.7995041243463588e+00 0 0 0
4148 2 1.1431712432133376e+00 3.4485825635891829e+00 3.8523133285489530e+00 1 0 0
3121 1 9.2054296635507900e+00 4.2403610694938259e+00 4.4695891622863195e+00 0 0 0
1979 1 9.8500254327087742e+00 3.2913143148877340e+00 2.2572272889118841e+00 0 0 0
3844 2 1.0643582966626766e+00 4.5844225306069850e+00 1.5256378450318218e+00 0 0 0
1965 1 9.6373702109409969e+00 2.4655085139840254e+00 1.6533049057969562e+00 0 0 0
1073 1 7.1426986177782696e+00 1.5437664194145706e-01 3.0870261224064177e+00 0 0 0
3772 2 2.5260821028675760e+00 3.1136538792124906e-02 4.2547746518281976e-01 0 1 1
1042 1 1.7197482376032425e+00 4.4110167724504228e+00 1.1504448933881625e-01 0 0 0
1963 1 8.8763358968321402e+00 2.8393540722606283e+00 4.8098324616761694e+00 0 0 0
1513 1 7.1349347050499468e+00 4.7065905149684628e+00 7.0517895084436411e-01 0 0 0
610 1 2.5499219113642009e+00 2.4589284641633080e+00 4.5318364680294172e+00 0 0 0
3631 2 3.7668137512553477e+00 4.7869486854948482e+00 9.9536285796555568e-01 0 0 1
21 1 2.2404787829969788e+00 1.7785446448095426e+00 1.3735061254689087e-03 0 0 0
3587 2 7.9550030621293759e+00 4.7295938816423924e+00 2.3211017377035787e+00 0 0 0
1880 1 8.6661881979318807e+00 4.7131987322545044e+00 2.8251197853939560e+00 0 0 0
2084 1 9.0519181895892356e+00 4.4704071277479480e+00 5.0944500845800073e-02 0 0 1
1913 1 4.2378232636791475e+00 1.2949075880407828e+00 4.8138660215513323e+00 0 1 0
1050 1 6.0563603054212214e+00 3.0574738602324221e+00 4.1080889351854319e-03 0 0 0
1029 1 6.8005061160362477e+00 1.2288635755952335e+00 2.5810846457395172e-02 0 0 0
733 1 4.9437945451138461e+00 3.0903855345755411e+00 2.0535118772123693e-02 0 1 0
2340 1 9.6558458760703747e+00 9.8486137323785616e-01 1.4260977475133109e-02 0 1 1
964 1 1.0418864087232709e+01 4.1403096235970898e+00 1.7279584225701219e+00 0 0 0
896 1 8.9866090177546865e-01 4.6824910345009894e+00 6.9864822948693572e-01 0 1 1
869 1 2.3835327762467604e+00 4.7219911626286084e+00 8.2498919189436783e+00 0 1 0
1090 1 5.1263156873678524e+00 8.3623386034267422e-01 5.0556796939493438e+00 0 0 0
186 1 5.1169502906808377e+00 4.2679081320449548e+00 8.3335988021870584e+00 0 0 0
1634 1 9.1955942289841897e+00 3.9501282970395306e+00 7.5626920103756081e+00 0 0 0
613 1 9.7853975761414222e+00 9.9320371052228407e-01 5.0503573745556665e+00 0 0 0
2986 1 4.1877786694083080e-01 4.8710953537008739e-01 5.2836627082694720e+00 1 0 0
3545 2 1.3103337920810871e+00 8.9732986019051553e-01 5.4713053969454322e+00 0 1 0
199 1 8.9581012887984057e-01 4.7466031573836098e-01 6.2746015188246593e+00 0 0 0
4300 2 7.4579159615490740e+00 4.7830888516692781e-02 6.0849920008748830e+00 1 1 0
1184 1 6.9170927873012689e+00 4.4834161085253692e+00 6.1595333438310078e+00 0 0 0
1676 1 6.7618295961927242e+00 2.8365202585458111e+00 5.2291545551136975e+00 0 0 0
706 1 1.9738495387062169e+00 6.3277859926732816e-01 5.9684849023335627e+00 0 0 0
628 1 6.7055497210016242e+00 4.6100820071025437e+00 4.9237245897625126e+00 0 0 0
3513 2 2.4029972417327361e+00 1.8017267555354530e+00 5.1479608433885069e+00 0 0 0
323 1 2.6687627342979625e+00 2.7507717268727805e+00 9.4209371699371065e+00 0 1 -1
913 1 2.9243337230396320e+00 1.2716536674491750e+00 5.8472697579943764e+00 0 1 0
891 1 2.5453669566451196e+00 2.2165695760103324e-01 6.7733154142727061e+00 0 1 0
538 1 6.6931023523398601e+00 1.9520647176193559e-01 6.5883162118947762e+00 0 0 -1
3611 2 4.6521089952049755e+00 4.2694822506607738e-01 5.6229871216920273e+00 0 0 1
3752 2 3.7728575254637193e+00 1.2783163706137406e+00 5.5224192969180077e+00 0 0 0
526 1 3.8510141987003208e+00 5.1254174632096139e-01 5.9397504192273853e+00 0 0 -1
1080 1 4.6046345498969892e+00 1.2624930993822907e+00 5.8050669545793143e+00 0 0 0
4078 2 8.6432240066601675e+00 1.6272596427143037e-02 5.5613213694523758e+00 0 1 0
1128 1 5.8152333676214818e+00 4.2635456255324478e-01 5.7027700959045209e+00 0 0 1
971 1 1.0056690333063266e+01 3.8969982963091367e+00 9.5149116916098073e+00 0 0 -1
1498 1 4.9740015584225228e+00 5.0040731352169365e-01 6.3898814648696707e+00 0 0 0
1683 1 5.9802558409143849e+00 9.7637531374842246e-01 6.4845385139517475e+00 0 0 0
1199 1 5.8613346575973519e+00 1.5440782912596387e+00 5.2028507675101228e+00 0 1 0
4081 2 5.0807406084511957e+00 3.7566315755183051e+00 9.1550333396335848e+00 0 0 -1
4122 2 6.5097475654749175e+00 8.7437479025632137e-01 5.4233931901952364e+00 0 0 0
1349 1 7.1458157968522302e+00 8.3935606163643461e-01 5.9907444760833952e+00 0 1 0
889 1 7.7856040031530762e+00 1.4133050732540748e+00 5.1359877467166983e+00 0 1 0
2044 1 7.8168056024490893e+00 3.5148305923100592e-01 5.3433405876542306e+00 0 0 0
1654 1 7.8730589622987956e+00 1.6297276245226491e+00 6.2748517766839988e+00 0 0 0
1907 1 8.2101785306626915e+00 4.5772836185880533e-01 6.2575022628019941e+00 0 1 0
1099 1 3.3757334950990701e+00 4.4880052632102263e+00 6.5478424406084637e+00 0 0 0
3821 2 8.1258967251347414e-01 6.5875272703480231e-02 7.2656826359118991e+00 0 1 0
1337 1 5.2520199208909872e+00 3.3049011786448909e-02 9.1767953998126437e+00 0 1 0
1955 1 9.2080096201218673e+00 3.9623946119824667e+00 6.4365727637402594e+00 0 0 0
160 1 1.8105282898257373e+00 4.4434237449282570e+00 6.0899084028648858e+00 0 0 0
110 1 7.5468095227899834e-01 1.5087286289357391e+00 5.7449162631788617e+00 0 0 -1
1628 1 8.7344296550816853e+00 4.7399413637261771e+00 8.0547958236348887e+00 0 0 0
695 1 1.8340878656465849e+00 1.6348447449053962e+00 5.8133905173792835e+00 0 0 0
602 1 1.6493914106833318e+00 2.1895714774523545e+00 4.9504085077201943e+00 0 0 0
2586 1 1.3210042668793345e+00 2.4034677148748815e+00 6.2470802048388361e+00 1 0 0
4302 2 2.1555219792386038e+00 2.6085862702696678e+00 5.6395091372919115e+00 1 1 0
1180 1 3.0825002365049108e+00 2.3407458874875773e+00 5.4835458088156068e+00 0 0 0
1482 1 3.3838542789476191e+00 3.2342531521908509e+00 5.0734384803927277e+00 0 0 0
4220 2 8.3256553206813884e+00 2.7248028671185383e+00 7.2988547565857882e+00 0 0 -1
675 1 2.9281202568643740e+00 3.2516350809044394e+00 6.1335625470332511e+00 0 0 0
676 1 2.3509229742506585e+00 3.3510616540243130e+00 5.1416253847546640e+00 0 0 0
1114 1 4.1923296442962297e+00 2.2453098278369441e+00 5.3214856945772420e+00 0 0 0
1187 1 4.8940691646628443e+00 2.2532819711818153e+00 6.0876071943180934e+00 0 0 0
659 1 3.8409054578026356e+00 2.8444973634191455e+00 6.0988606907652505e+00 0 0 0
3713 2 4.5639096136081996e+00 3.0618241093892862e+00 5.6384968499135502e+00 0 0 0
698 1 3.7578032229034735e+00 1.8316433341481808e+00 6.2785743546945474e+00 0 0 0
1177 1 5.2686245582182334e+00 2.7062179238915962e+00 5.1829715399877303e+00 0 0 0
1853 1 5.9931463696120009e+00 2.0205992861290238e+00 6.2030265104515232e+00 0 1 1
3123 1 5.8761868997567204e+00 3.0827231383522795e+00 5.9895840883073150e+00 1 0 0
3577 2 6.6563407835699637e+00 2.6230605188148295e+00 6.0599599089432612e+00 0 0 -1
1107 1 4.5214830095051202e+00 8.3671429256005203e-01 9.3549807777229503e+00 0 0 0
1647 1 6.8687008908493832e+00 1.8011732719528115e+00 5.6546373769530467e+00 0 0 0
1049 1 7.7700275063235580e+00 2.5569614908015366e+00 5.1095398910739656e+00 0 0 0
2196 1 8.4459347473776525e+00 3.1585451200399950e+00 5.7383846713204703e+00 0 1 -1
1153 1 7.5621888729511486e+00 2.7599424291033032e+00 6.2600539392672188e+00 0 0 0
1171 1 9.2778236931015510e+00 3.6903611501002214e+00 5.4060554593271029e+00 0 0 0
2494 1 2.0712465018554469e+00 9.6054907143936319e-01 4.9535805764689380e+00 1 0 -1
813 1 7.3061133467949562e+00 5.3118586446136838e-02 9.5964051793732725e+00 0 1 -1
1188 1 8.1170129466472876e+00 4.6300749720380310e+00 8.9048250435400895e+00 0 0 0
227 1 4.2851973037096212e+00 3.6533811595303338e+00 8.7647199939935057e+00 0 0 0
1079 1 1.3174278587084056e+00 3.0474460930106160e+00 5.3495007405701074e+00 0 0 0
223 1 9.2486799237402773e-01 3.8815906520581831e+00 5.9386100854451556e+00 0 0 0
1133 1 1.8854486681425575e+00 3.3372421160606338e+00 6.2381044784192632e+00 0 0 0
3728 2 1.0145855903020383e+01 4.1403627789908164e+00 7.7825653886530572e+00 0 0 0
784 1 8.4163402267389298e+00 1.4969890672187309e+00 7.1964562242081467e+00 0 1 0
601 1 2.8389498715958474e+00 4.2170272310035433e+00 5.6287858808947453e+00 0 0 0
1093 1 3.9894124434358336e+00 3.7924302210890781e+00 5.6985537383008191e+00 0 0 0
3787 2 7.7116055171057498e+00 3.6964711723119841e+00 6.4361089024736886e+00 0 0 0
2088 1 5.1916871501841113e+00 3.7164352080429826e+00 5.4411660841647240e+00 0 0 0
127 1 4.8213808252340815e+00 3.4189119262072460e+00 6.3957691952547977e+00 0 0 0
3749 2 8.4788015755263704e+00 3.9937378491381761e+00 8.5061792353498156e+00 0 0 0