LAMMPS data file via write_data, version 12 Dec 2018, timestep = 304920

4320 atoms
2 atom types

0.0000000000000000e+00 1.9309999999999999e+01 xlo xhi
0.0000000000000000e+00 1.9309999999999999e+01 ylo yhi
0.0000000000000000e+00 9.6549999999999994e+00 zlo zhi
8.9212199999999982e+00 0.0000000000000000e+00 0.0000000000000000e+00 xy xz yz

Masses

1 1
2 1

Atoms # atomic

2850 1 8.7892268168824828e+00 2.4966037229169489e+00 2.1675699054897595e+00 0 1 0
1531 1 6.9525958106384209e+00 4.4710410266416628e-01 6.5948672089214009e-03 0 0 1
2330 1 8.8679486932785103e+00 4.8416200351105187e-01 9.8999944736688583e-01 0 1 1
3798 2 9.0082997681911081e+00 1.1557606114193710e+00 3.5744979693962384e+00 0 1 0
1621 1 5.9587796918340459e+00 4.5129410475213012e+00 3.1516111862642986e+00 0 0 0
1870 1 7.1154956996504319e+00 1.5657132036181161e+00 4.7985166439019167e-01 0 1 1
4041 2 7.2232266130512617e+00 3.6907358318210753e-01 3.9899986270028571e+00 0 1 0
1766 1 4.4436994671631940e+00 4.4077884077786567e-02 2.0992380935564672e+00 0 1 0
1544 1 7.8297872105530555e+00 2.5146706091739457e+00 5.8002122546015655e-01 0 0 0
851 1 8.0528608341008301e-01 8.0216401841188212e-01 6.3383043833574704e-01 0 1 0
3635 2 8.2478758882978482e+00 1.0280507170805353e+00 4.6416308717336658e+00 0 0 1
1190 1 1.6946455075797036e+00 1.1711444249401575e+00 1.2887749497647896e-01 0 0 1
2108 1 5.4268297384341704e+00 3.8584783687702102e+00 4.5200643824759315e+00 0 0 0
3501 2 1.1167776148994522e+01 4.0095502922834516e+00 2.6239839782798589e+00 -1 0 0
1127 1 2.3794030220323985e+00 4.6626660786982754e-01 4.8523791201450456e-01 0 0 1
1554 1 2.6370790041680281e+00 1.4217636482841540e+00 7.2754326825209115e-01 0 0 1
4042 2 2.0027842276043692e+00 1.0482619306924488e+00 4.2642935099232027e+00 0 1 0
95 1 3.2604382277630584e+00 7.5489298859887288e-01 1.1609308156621245e+00 0 0 0
2213 1 9.3213069439884997e+00 9.3167836036377969e-05 3.7761392723171885e+00 0 1 0
2468 1 8.4940307253233698e+00 3.4296466601736721e+00 1.1047892323817046e+00 0 0 0
870 1 3.5492091378136497e+00 1.7986420833827079e+00 1.1593258272880209e+00 0 1 1
1798 1 4.1532752399500010e+00 9.8216623031453154e-01 5.5500823537150801e-01 0 1 0
2689 1 7.9574669240067966e+00 2.3566750988445908e+00 2.6999593283913668e+00 0 0 0
906 1 7.1597783035438818e+00 2.9166534401541679e+00 2.2157881594434734e+00 0 1 0
1615 1 5.2423052424085048e+00 1.5571594102348578e+00 8.8804258522914703e-01 0 0 1
2677 1 9.7862918410200539e+00 7.0704719905641422e-01 1.4508724662530350e+00 0 0 1
1357 1 4.8496449218281992e+00 7.4014227526210608e-01 1.4930333527428261e+00 0 1 1
767 1 6.2600997004028516e+00 1.8372645836943398e+00 1.1632051876932454e+00 0 1 0
1913 1 2.6852963145890980e+00 1.4152649117735945e+00 4.7009042671379531e+00 0 1 0
3468 2 6.0517027966247348e+00 2.6921261037407023e+00 8.7715216555860975e-01 -1 0 1
2132 1 8.4314383685034144e+00 1.6590032921852678e+00 3.9950983189350473e+00 0 0 0
1671 1 8.0546839435287509e+00 4.3230819825651725e+00 9.0066643213837916e-01 0 0 1
1979 1 8.1703360087531571e+00 3.3917898383405261e+00 2.1280500526433874e+00 0 0 0
3771 2 7.6811899484763186e+00 3.7728937434076157e+00 3.7375945013879348e+00 0 1 -1
1066 1 9.1492510993040277e+00 4.1391597000213594e+00 5.7769452715351677e-01 0 0 0
4063 2 7.9907908151534519e+00 9.2649927774855712e-01 2.9249930833796025e+00 0 1 1
2444 1 9.7218656733142375e+00 1.5403925557761158e+00 7.9075122199925435e-02 0 0 0
1493 1 9.5822401871192344e+00 1.7574273064826005e+00 3.9626548756593936e+00 0 0 0
2201 1 7.0956969684452069e+00 4.3645151560837663e+00 1.0549028865753913e+00 0 1 0
2649 1 1.0877806436085704e+01 4.3934266463594689e+00 4.2592112385572696e+00 0 0 0
1550 1 7.7183266666918255e+00 2.0130633006836124e-01 4.6619498857511994e+00 0 0 0
3750 2 1.1260987201626373e+00 1.5346274522085477e+00 8.8879287299230691e-01 0 0 1
34 1 1.7768755515524544e+00 2.1941784353474594e+00 4.4870270332568224e-01 0 0 0
970 1 3.9317703583838473e+00 4.7454305728003288e+00 4.7115642342970601e+00 0 0 0
968 1 2.9457728046101876e+00 2.4397405168745467e+00 6.1538728721060776e-01 0 0 1
3708 2 1.8377516328731835e+00 1.8767341484979179e+00 1.9698542508831292e+00 0 0 0
1166 1 2.1439735576045607e+00 2.4752912459112584e+00 1.3561262177213076e+00 0 0 1
3768 2 2.5903829999083525e+00 3.2316811337090168e+00 6.5728445117546130e-01 0 1 0
2754 1 8.8763974617813570e+00 5.4174099930130393e-01 2.9953038781932304e+00 0 1 0
3757 2 4.4204036400095257e+00 1.8365563945904271e+00 9.5094970324701278e-01 0 0 1
1764 1 4.0131011277432389e+00 2.5256220217311740e+00 4.8095757276058876e-01 0 1 0
1617 1 5.0238073426252585e+00 2.6067979211902075e+00 6.9383830652969469e-01 0 0 1
1785 1 6.0827441192774065e+00 7.5778744626830730e-01 2.8497317288386013e+00 0 1 0
2661 1 1.0966191338482870e+01 3.0724246449783497e+00 3.5044808627113309e+00 0 0 0
4116 2 2.3546046246236445e+00 5.5231474958808935e-01 1.3729953988764749e+00 1 0 -1
1505 1 2.4951908939333194e+00 3.8211331377025020e+00 3.6158717757491741e+00 0 0 0
1667 1 8.7361108243000913e+00 8.9175198688336887e-01 1.9900389635224840e+00 0 0 1
1499 1 6.0517984715612450e+00 2.2053338179724769e+00 1.9239348085888677e-01 0 0 1
2076 1 6.9890650864504194e+00 2.3181098667339453e+00 3.0445027374126590e+00 0 0 1
1489 1 8.9509488003074047e+00 2.4051156921325547e+00 3.3101303110021512e+00 0 0 0
2275 1 9.9460017879037039e+00 4.0981545404077231e+00 1.3093313491583780e+00 0 1 0
1897 1 7.2595346965868357e+00 4.7066397247550518e-01 1.9644895612832434e+00 0 1 1
1029 1 5.0939425053427181e+00 4.8084615099867101e-01 5.2607144925746707e-01 0 0 0
1358 1 2.9204827975871410e+00 7.5966521390064301e-01 2.1370824721680695e+00 0 1 1
2081 1 9.1403868831792821e+00 3.3338884190533857e+00 3.8643879514659694e+00 0 0 0
656 1 1.7172788227966358e+00 3.3777822074317254e+00 5.9597457242826302e-01 0 0 1
3601 2 1.1007119425486339e+01 4.2895997724818065e+00 8.2918301406444406e-01 -1 0 1
50 1 3.0280540466419330e+00 4.8116478595362322e+00 1.4251315717224418e+00 0 0 0
1538 1 7.5806314732563331e+00 1.5961433426199449e+00 3.3490105259929517e+00 0 0 0
2335 1 8.1943506689509853e+00 6.2375156734557992e-02 3.1087876608513981e-01 0 1 1
124 1 3.5090792230531731e+00 3.8772114148921517e+00 4.1460649093363902e+00 0 0 0
3764 2 6.4719940876320559e+00 8.8627214795230458e-01 1.9302646658819416e+00 0 1 -1
1019 1 3.3853568052139726e+00 3.4955332891104605e+00 8.8164394695688963e-01 0 0 0
1198 1 2.4725373552529173e+00 3.9381579275732408e+00 1.1272634008000790e+00 0 1 0
3627 2 3.3184092528225344e+00 4.3677764625520279e+00 7.7627404903193264e-01 0 0 1
2159 1 8.5267861276669485e+00 4.2081545197445260e+00 3.9866674406443501e+00 0 0 0
2515 1 1.0644521110952644e+01 3.2577731639199099e+00 8.9149544835228989e-01 0 0 0
567 1 4.4816605062150785e+00 3.5070718400736025e+00 9.1469742806102960e-01 0 0 0
669 1 3.9943365706838816e+00 4.3801811472844996e+00 1.4152689584324805e+00 0 0 1
3865 2 4.5833970889702655e+00 4.4681081666716214e+00 7.3574147387742994e-01 0 0 0
1051 1 3.9479361105390098e+00 4.0966387998219513e+00 2.6211244984676757e-01 0 0 0
1122 1 8.6970480138400905e+00 1.9133201938006794e+00 2.6453197324387969e-02 0 0 0
1858 1 7.0296143861098610e+00 2.0900467163548826e+00 4.1052702698708883e+00 0 1 0
2120 1 9.7866640690803486e+00 2.7305253457815399e+00 4.5408448610459331e+00 0 0 0
503 1 6.6431282334420079e+00 3.4533552177506954e+00 7.0515458932431319e-01 0 0 0
1506 1 5.5546596385823914e+00 3.4841185659064120e+00 9.3338532819701892e-01 0 0 0
1564 1 6.3878531199126085e+00 4.2944189849888739e+00 2.0950101977214486e-01 0 0 1
1572 1 6.0984426841553603e+00 4.2427838619366307e+00 1.4328219873908918e+00 0 0 1
889 1 6.2380735634037343e+00 1.6127880467971738e+00 4.5388058084464218e+00 0 1 0
253 1 1.4942894568736491e+00 2.6901136114673596e-01 1.2067800534242188e+00 0 1 0
3730 2 1.0175495219370703e+01 3.2303737168486681e+00 1.5748931106443242e+00 0 0 -1
1470 1 7.4719333275372035e+00 3.3600344952385961e+00 1.3379534331505225e+00 0 0 0
1167 1 1.9753884952435699e+00 2.1745358714191387e+00 4.5008684318244470e+00 0 0 0
1485 1 8.6055151763585158e+00 1.5157238004965312e+00 2.9333300377641462e+00 0 0 0
2642 1 9.8278526150354892e+00 2.6307335647778594e+00 2.3557595612545650e+00 0 0 0
513 1 2.8655840842589342e+00 4.7215991672031574e+00 4.7198493822324510e+00 0 0 0
1098 1 6.9722668636610710e+00 2.6617188867600765e+00 4.1775715566673519e-02 0 0 1
2250 1 7.8946645277122327e+00 2.5419924362555659e+00 3.7345911247402390e+00 0 1 0
1000 1 8.3501461930217913e-01 9.7733094242158625e-01 1.7206632094727308e+00 0 0 0
1491 1 2.3710140056840929e+00 3.9157495215464594e-01 4.7436507035959217e+00 0 0 -1
2555 1 1.0151356333484813e+01 3.5728598429796099e+00 4.0317139944401559e+00 0 0 0
159 1 1.7032985721690230e+00 6.7882325260573007e-01 2.3648284780499411e+00 0 0 0
992 1 8.6571893764437347e-01 8.5876619846819469e-01 3.0266556063841024e+00 0 0 0
2854 1 8.8085375595577595e+00 2.4884190826667769e+00 4.4979231331425478e+00 0 1 0
1134 1 2.3081483437270789e+00 1.4943589821784857e+00 2.6252845260062281e+00 0 0 1
1040 1 2.7082638530672036e+00 1.7897636059631266e+00 1.7216383146375318e+00 0 0 0
3063 1 1.0375491859949927e+01 3.4714466155682828e+00 2.5735285849838663e+00 0 0 0
1783 1 4.0445686362634126e+00 9.4548340483849858e-01 2.3347695527493029e+00 0 1 0
3878 2 4.0346825361858389e+00 1.0746459721445398e+00 1.4351820249883076e+00 0 0 1
631 1 3.2527813401954524e+00 1.3985638491442329e+00 2.9839743577309590e+00 0 0 0
3756 2 5.6748292304042200e+00 7.3195413262485565e-01 1.1315843589790575e+00 0 0 1
1513 1 5.6104064811603775e+00 4.7346869397493148e+00 6.7912148325116817e-01 0 0 0
575 1 4.3338043402016719e+00 1.1205033780009881e+00 3.2725962614705311e+00 0 0 0
722 1 4.6225519168712799e+00 1.6674065054965705e+00 1.7618574244197651e+00 0 1 0
1147 1 5.0617336623560778e+00 8.8683884483323716e-01 2.6465579979386811e+00 0 0 1
1351 1 5.6976545357458201e+00 1.2925861338847300e+00 1.8304460687327098e+00 0 1 0
3775 2 6.3112038896816536e+00 1.7668310270262133e+00 2.9723437324149264e+00 0 1 0
548 1 4.4713593769307947e+00 3.4730245478932478e+00 4.5645626484021014e+00 0 0 0
2737 1 9.8148589147950034e+00 8.3634966848483416e-01 3.4478159089638161e+00 0 1 0
3503 2 6.4320872125723447e+00 2.7779362553010243e+00 3.5762188610638139e+00 -1 0 2
1976 1 1.0946364001578917e+01 2.8080356144213101e+00 1.7746676013666720e+00 0 0 0
1684 1 9.3987779872646655e+00 4.3477736854402478e+00 3.3960541887479585e+00 0 0 0
2538 1 8.8024326622585303e+00 2.4612033007532701e+00 1.0648921739227923e+00 0 0 0
1622 1 6.8503917324063179e+00 4.1442520730881149e+00 3.7082995739719871e+00 0 0 0
1855 1 6.5893512992628747e+00 6.3016934221507892e-01 1.0803404159129262e+00 0 1 1
1471 1 9.0803718094580219e+00 8.0358681397753462e-01 4.3820414770842788e+00 0 0 0
1965 1 7.8683949760124943e+00 2.4134035922161319e+00 1.6570673576323012e+00 0 0 0
1455 1 7.3099742900083378e+00 4.2036675588307865e-01 3.1080807125261805e+00 0 0 0
1065 1 1.0727026355862221e+00 2.1084577294345772e+00 1.5331362819361678e+00 0 0 0
1376 1 1.1811624053094230e+00 1.7476435256054548e+00 2.5124638540323154e+00 0 1 0
817 1 6.0445139083604849e-01 6.3110220638296535e-02 2.3600139720980939e+00 0 1 0
2941 1 1.8959429600276874e+00 2.6649030447451687e+00 2.4848694344899838e+00 1 0 0
3608 2 1.8169309659425197e+00 2.0887701528609570e+00 3.1266838628602893e+00 0 0 0
1380 1 5.8134724801895166e+00 2.3699819770458116e-01 1.8553661257199570e+00 0 1 1
555 1 1.7905884172038968e+00 1.2381513683055749e+00 1.3901578730874309e+00 0 0 0
505 1 3.1879311396864880e+00 2.7698460581079378e+00 1.6304376062534314e+00 0 0 0
663 1 2.8509496812235171e+00 2.3319280392989210e+00 2.6480424154184408e+00 0 0 0
3686 2 2.3814988035257878e+00 3.3074775213396523e+00 1.6266924196531118e+00 0 1 0
1446 1 3.7311351073630457e+00 3.0505242839621833e+00 2.5063871972666707e+00 0 0 0
568 1 3.7230768698165377e+00 1.9330390013602889e+00 2.1988591745334616e+00 0 0 0
3703 2 3.9499147699305834e+00 3.5564183814539798e+00 1.6064390893103158e+00 0 0 0
3533 2 4.4929794489837187e+00 1.7090884343944812e+00 2.6161646862966679e+00 0 1 0
1462 1 4.2786478622124200e+00 2.6088944864786852e+00 1.5191949252285000e+00 0 0 0
1511 1 4.7064063424848142e+00 2.4927389310694337e+00 2.4346069242038104e+00 0 0 0
1561 1 5.0762088967235712e+00 3.2905165792181363e+00 1.8647251762295343e+00 0 0 0
2197 1 5.4663965294816075e+00 1.8708928311425757e+00 2.6258017766030570e+00 0 1 0
566 1 5.4219263950393355e+00 2.3250804366817639e+00 1.6527175102320453e+00 0 0 0
1437 1 6.2386287900954454e+00 3.1263578198049067e+00 1.6106451678164291e+00 0 0 0
2101 1 6.3741318225682635e+00 2.2191414575670385e+00 2.1437944914850755e+00 0 0 1
3946 2 5.6709414704788195e+00 2.8361295176736538e+00 2.3850262931884663e+00 0 1 0
1721 1 5.4424420007439096e+00 2.9205327729750299e+00 3.1673626132730122e+00 0 1 0
2421 1 6.4173076256265622e+00 3.1583438898034046e+00 2.8632663238953264e+00 0 0 0
2098 1 5.0457886093626207e+00 3.9757993749490814e+00 1.2879384547490921e-01 0 0 1
1076 1 9.5834077509639766e+00 3.1350513448087360e+00 5.6395122470266124e-01 0 0 0
599 1 1.9659794551535288e+00 8.2801871154797846e-01 3.3749936919232804e+00 0 0 0
991 1 6.9233751643803947e+00 1.3319643034244890e+00 2.5091940612624515e+00 0 0 0
2145 1 8.3167327173597840e+00 3.4412590573428932e+00 3.2897964330890317e+00 0 0 0
1689 1 8.0819139143036995e+00 3.2784546651151922e+00 4.4253750407326145e+00 0 0 0
137 1 1.9851361439658530e-01 6.5063545893919500e-03 2.6053618556180880e-01 0 0 1
21 1 8.1829370316092076e-01 1.6997589426826039e+00 4.0401923294919935e-02 0 0 0
2176 1 8.0950483109155087e+00 7.5538614063060761e-01 3.7973797089808481e+00 0 1 0
4056 2 9.8699586605490808e+00 3.6116295934565974e+00 3.2066177771173026e+00 0 0 0
1073 1 5.4860691118631548e+00 1.2880239667192991e-01 3.4495018691690387e+00 0 0 0
1682 1 5.9910472839000670e+00 3.5441449089157242e+00 3.7282388759966087e+00 0 0 0
1039 1 1.9779255162357108e+00 3.8271557967410299e+00 2.1378592879816862e+00 0 0 0
1991 1 9.7556071062572300e+00 6.3627413938697752e-01 2.4339677727927005e+00 0 0 0
3619 2 1.7725042480670234e+00 3.3232646163498010e+00 3.1027755068213292e+00 0 0 1
1651 1 6.4976653698451416e+00 2.8995346578274895e-02 3.6200968350358780e+00 0 0 1
1242 1 3.4795804827725072e+00 1.6512211728656154e+00 1.5185411106485247e-01 0 1 0
1160 1 7.0685170405548936e+00 1.4650716214837085e+00 1.5380471497853221e+00 0 0 0
1440 1 2.6763786033795571e+00 3.3290585328170650e+00 2.7108343990114938e+00 0 0 0
664 1 3.1468005542140642e+00 3.8511737657709801e+00 1.8891675231839213e+00 0 0 0
2084 1 7.4036972358395818e+00 4.4902409238490897e+00 2.2093381695944731e-02 0 0 1
3121 1 7.5208378233817985e+00 4.2166695384276061e+00 4.5112642042866584e+00 0 0 0
994 1 3.5656386957896409e+00 3.8918225509553457e+00 3.0834575990948760e+00 0 0 0
1428 1 5.0224444748072621e+00 4.2526401054042173e+00 1.5246966515811780e+00 0 0 0
1472 1 7.8223119025057244e+00 4.4604159803228347e+00 2.0080189820875809e+00 0 0 0
534 1 5.0787808855561991e+00 3.8534673223128020e+00 3.0438315211094005e+00 0 0 0
1271 1 4.2862025333518101e+00 3.9152016128668516e+00 2.3205453759768142e+00 0 1 0
952 1 6.9867328627158942e+00 2.5165057263386892e+00 1.1446363743984587e+00 0 0 0
3838 2 5.2525227569325788e+00 4.2891432857000362e+00 3.8170762435253112e+00 0 0 0
2946 1 7.5962778066337453e+00 7.1742715977307492e-01 8.9478330135542317e-01 0 0 0
1072 1 6.8480489507336806e+00 3.9316433704728615e+00 2.0075152004119006e+00 0 0 0
1535 1 5.8508102280906407e+00 3.8378412610121777e+00 2.3525571306804176e+00 0 0 0
3964 2 6.5663744204815098e+00 3.9896285435322052e+00 2.8960915924886681e+00 0 1 0
115 1 4.1501797055350148e-01 1.0356897547600062e-01 1.3052196537786460e+00 0 0 0
3602 2 6.0115968172491128e+00 5.6199832486880763e-01 4.0701667648690734e+00 0 0 0
964 1 8.7810954339234772e+00 4.1930291607524968e+00 1.6673730150411952e+00 0 0 0
1425 1 7.0891079839690399e+00 3.1533546174583882e+00 3.9382299693237184e+00 0 1 0
574 1 2.1006305934947305e+00 3.9722961287871148e+00 4.5586426506576636e+00 0 0 0
386 1 4.0069402917250354e+00 4.2568833395513300e-01 4.0057326278856635e+00 0 1 0
3460 2 7.4354016712309239e+00 3.0656444137596455e+00 3.0729080250461109e+00 -1 0 0
2823 1 1.0543952126018054e+01 4.2147519581121990e+00 3.3069571395020683e+00 0 1 0
1644 1 6.5788836136045070e+00 3.7276390467654075e+00 4.7568702985952847e+00 0 0 0
2428 1 1.0222570968595406e+01 4.0326191518759948e+00 2.9720120844004005e-01 0 1 1
1570 1 1.0965993290300425e+01 3.9113094388583969e+00 1.6736284953773033e+00 0 0 1
3676 2 7.2576718224940198e+00 2.0221969318907034e+00 2.1826342689679596e+00 0 1 1
751 1 3.5243945263728640e+00 4.0412893605170735e-01 2.9670938782265850e+00 0 1 0
2479 1 1.1698824504481614e+01 4.4934413586229667e+00 1.2640742777677316e+00 0 0 0
2386 1 9.4416172097756750e+00 1.6626352334588799e+00 1.9074321116274957e+00 0 1 1
652 1 1.2744752628814746e+00 7.0211711493207662e-01 4.1629290183029788e+00 0 0 0
1439 1 9.6636226738032462e+00 4.2136999006114522e+00 2.3828192396749350e+00 0 0 0
976 1 4.9406684211807450e+00 5.4139848676913412e-02 4.3929566334769463e+00 0 0 0
4264 2 2.6907247906687775e+00 7.1636001988798315e-01 3.0079506511218397e+00 1 0 1
1054 1 2.9252821519096526e+00 6.0091668486460670e-01 3.8589360215717101e+00 0 0 0
481 1 2.5456065984290870e+00 1.6442569303026027e+00 3.6896262975274885e+00 0 0 0
235 1 3.5895610511971858e+00 1.5157250579517527e+00 3.9854806631206787e+00 0 0 0
4242 2 8.6487262023092590e+00 1.7341092314414932e+00 1.6737596422694965e+00 0 0 1
3856 2 4.8015153911741209e+00 5.5362327669842881e-01 3.6851019631335249e+00 0 0 0
2360 1 4.6874807584215583e+00 1.1186484160032093e+00 4.3880737062535067e+00 0 1 0
30 1 4.3793558626575191e+00 4.2473136072158812e+00 3.8386776941659204e+00 0 0 0
4281 2 9.4306720507307169e+00 2.2322711646158835e+00 4.9810301726134876e-01 0 1 0
1950 1 6.6573600936063295e+00 1.1092041015212091e+00 3.6700727877893375e+00 0 0 0
2646 1 9.6729403187561971e+00 1.6910549238168306e+00 2.9350217796988050e+00 0 0 1
580 1 5.5454292883011478e+00 1.1506318254036092e+00 3.7680601267387464e+00 0 0 0
878 1 6.6204492009615290e+00 4.6736937555187158e-01 4.6137572205498065e+00 0 1 0
1103 1 7.4097792513894429e+00 1.1689789433219238e+00 4.3974765743998487e+00 0 0 0
4147 2 1.0439883799477975e+01 4.4940522610463587e+00 1.9387835642898323e+00 0 0 0
2358 1 1.0303680707648880e+01 2.3259141351041031e+00 4.0709283657425605e-01 0 1 0
550 1 2.6429866021325004e+00 4.3502931592781007e+00 2.7663880986674321e+00 0 0 0
1519 1 7.8657835461241268e+00 1.4010650970327856e+00 2.1473012347193094e+00 0 0 0
1711 1 7.6147142276937991e+00 3.5247387645300345e+00 2.8355414146147906e-01 0 1 0
1359 1 6.0528181762434272e+00 1.1719565826651761e+00 2.3599933902742476e-01 0 1 1
2544 1 9.4637031924195902e+00 4.2284342155623449e+00 4.4828096453157231e+00 0 0 0
2056 1 9.1604097370125306e+00 1.4311416723092909e+00 9.0617406641199194e-01 0 0 1
1117 1 2.8271385923360550e+00 3.9724585223741644e+00 1.0828330316061820e-01 0 0 1
2513 1 8.1045859361492276e+00 1.5840211430956279e+00 9.8729346100508719e-01 0 0 0
1584 1 3.3507176914093867e-01 5.2132097162827873e-01 3.8657861768481698e+00 0 0 0
2063 1 8.5457734395362710e+00 4.2941204111706863e+00 2.7326602526842247e+00 0 0 0
1983 1 9.9180187945958505e+00 2.6150399245821370e+00 3.4764008428266502e+00 0 0 0
1165 1 1.4359550194794113e+00 1.6988425370160398e+00 3.7536469529701182e+00 0 0 0
2952 1 1.1235325145215604e+01 3.7958894355339670e+00 1.9483735493634599e-01 0 0 0
572 1 2.3090592450530698e+00 2.6920129114435203e+00 3.4751421870710271e+00 0 0 0
1988 1 9.3496037581513782e+00 3.2715854826106678e+00 1.6293575408065868e+00 0 0 0
2631 1 9.1571821378261973e+00 3.3353819937110281e+00 2.7394498010783419e+00 0 0 0
3719 2 2.3385513795066211e+00 2.9788434038095968e+00 4.3450885126150043e+00 0 0 -1
4119 2 3.1438939922128903e+00 2.1665599463056431e+00 3.5103205272737616e+00 0 0 0
1007 1 3.0101514853503715e+00 2.4168674386129068e+00 4.3220121576561796e+00 0 0 0
2164 1 3.3109169833903396e+00 3.0443704637449924e+00 3.5785621890194483e+00 0 0 1
3884 2 3.7026688057880275e+00 3.0635185704528465e+00 4.3624130243751296e+00 0 0 1
1062 1 3.9276137255863794e+00 2.1575885240897339e+00 3.2400320779246163e+00 0 0 0
1194 1 4.8815685495497805e+00 2.0558821227983981e+00 3.5230453862967521e+00 0 1 0
814 1 4.1082359530194790e+00 2.3119907789143399e+00 4.2836864334565705e+00 0 1 0
1081 1 4.3870936664676004e+00 3.1410464678554844e+00 3.4236536070258441e+00 0 0 1
860 1 5.2064409798549063e+00 2.9095353729586071e+00 4.1734016415368567e+00 0 1 1
2055 1 9.9104476468055722e+00 2.3765650089096759e+00 1.3389946439476290e+00 0 0 1
1678 1 7.4860912522957026e+00 3.8297898976099867e+00 2.7990689596302034e+00 0 0 1
1071 1 5.2240127556721569e+00 1.9479720512861201e+00 4.5839202893906341e+00 0 0 -1
1573 1 5.9222790634917084e+00 2.1222095973846273e+00 3.6898037887425961e+00 0 0 0
537 1 6.2050443614825861e+00 2.7042694287442726e+00 4.4801603416510121e+00 0 0 0
987 1 4.6615147951319154e+00 1.7456282737186999e+00 5.4832911253162420e-02 0 0 0
2174 1 3.4526158428816220e+00 2.8053553557406929e-01 2.5707416485723750e-01 0 1 0
1696 1 6.0806209160779865e+00 4.6200259167380935e+00 4.2232728094266658e+00 0 0 0
2500 1 1.0564483111454493e+01 2.1176632338532539e+00 4.3101602553437477e+00 0 0 0
2030 1 1.0742250360499265e+01 3.1059021590034650e+00 4.8113020272662013e+00 0 0 0
1457 1 7.7139841530574680e+00 4.6274095881921493e+00 3.5376874838076464e+00 0 0 0
1441 1 8.5802179774158844e+00 3.0023347583889288e+00 6.6410094698353309e-02 0 0 0
500 1 4.0785180611727876e+00 6.7083025493232293e-02 1.1334867960881867e+00 0 0 0
3030 1 1.0876268240654875e+01 4.8239979355765046e+00 1.7054825823143985e-01 0 0 0
3979 2 1.0390061556302012e+01 1.8747398977797913e+00 3.3530789664363700e+00 0 0 0
3587 2 6.1954981815990315e+00 4.6361738731430000e+00 2.1761083504954111e+00 0 0 0
508 1 4.4323877525861910e+00 4.7547462329323942e+00 2.9980830914014214e+00 0 0 0
655 1 3.5739684317159215e+00 4.6911140989636468e+00 2.3841408121659380e+00 0 0 1
818 1 1.3278541361927501e+00 1.1999167314642618e-01 4.2683335685135312e-02 0 1 0
1880 1 7.0322887119705442e+00 4.7698531798769537e+00 2.7386265853244764e+00 0 0 0
2436 1 1.1293056907727925e+01 4.7945100146023858e+00 2.2854962383779629e+00 0 0 0
975 1 7.8615328785496619e+00 2.0403664913989648e+00 4.7650691375292631e+00 0 0 0
3565 2 6.6980012278996002e+00 4.5548262021758426e+00 4.8211633126259148e+00 0 0 0
2522 1 9.4915214659592380e+00 4.5864283509171715e+00 6.7146220038989863e+00 0 0 0
370 1 1.7667648327217047e+00 2.6846041601184567e-01 7.9624634649883550e+00 0 1 0
186 1 3.5756721721317382e+00 4.3056623296809571e+00 8.2618511643887853e+00 0 0 0
1634 1 7.4884371915850316e+00 4.1078624544496209e+00 7.5052939858347187e+00 0 0 0
1504 1 5.8169515392252231e+00 4.4647960385487027e+00 5.2323846229547533e+00 0 0 0
2102 1 9.5636491148317724e+00 3.8533673733644286e-01 7.7131660793475083e+00 0 0 0
2156 1 1.0220653571917747e+01 3.5571840626994162e+00 7.8094206639961667e+00 0 0 0
1129 1 9.2956559945675750e+00 3.8908950870629813e+00 7.5697707069202478e+00 0 0 0
3364 1 7.4842636255465385e+00 3.8338451737152990e-01 5.9810861229362118e+00 0 1 0
1184 1 5.2054291842719236e+00 4.5440610534846844e+00 6.2321125071427659e+00 0 0 0
1736 1 1.0153015530383596e+01 1.6744225460874380e+00 8.7426343363988401e+00 0 1 -1
2524 1 1.0466941938052818e+01 3.2503848185931608e+00 6.7149269939992431e+00 0 0 0
538 1 4.8467285089237215e+00 2.2011567779477592e-01 6.3336298666381330e+00 0 0 -1
4001 2 1.0824892996216457e+01 4.1992474558113191e+00 8.2114046010899209e+00 0 0 0
971 1 8.3816819744844615e+00 4.0490218909144131e+00 9.5292981119791929e+00 0 0 -1
913 1 1.4312285330775909e+00 1.3801786879077478e+00 6.1442985816015998e+00 0 1 0
610 1 1.0916039978737202e+00 1.6869480301059208e+00 4.9950306224810621e+00 0 0 0
2340 1 7.8514586695953579e+00 1.0758589564031498e+00 9.5934972587897320e+00 0 1 0
3611 2 3.0949266699012048e+00 5.7927613050235371e-01 5.3900800773712838e+00 0 0 1
3752 2 1.9263659586870270e+00 1.6440532105250873e+00 5.3245409344452312e+00 0 0 0
526 1 2.3509274175474877e+00 1.0159379103040200e+00 5.6951738767066011e+00 0 0 -1
1080 1 3.2766659135080309e+00 1.5388892860181869e+00 5.6743297473715684e+00 0 0 0
2364 1 9.7798800123882135e+00 2.5009872101940753e+00 6.4024117552202391e+00 0 1 0
3546 2 9.1708376996797032e+00 3.1858961897034397e+00 5.8493077493139971e+00 0 1 0
4295 2 1.1855401537589465e+00 1.7093852930910153e-01 8.7059009334574355e+00 1 1 0
1498 1 3.1110779314610331e+00 7.2112573589003426e-01 6.3038938577707304e+00 0 0 0
1683 1 4.1981787162382664e+00 1.1374528092535245e+00 6.3033816265448603e+00 0 0 0
1199 1 4.2595242584359667e+00 1.7379449151360000e+00 5.1561142077040891e+00 0 1 0
4081 2 3.6224152265138190e+00 3.8924141582425174e+00 9.1241402689576745e+00 0 0 -1
2502 1 9.4704020571255345e+00 1.5612169475664053e+00 6.0047127105563263e+00 0 0 0
1349 1 5.5816540734930502e+00 8.1832126421709783e-01 5.9265495821563476e+00 0 1 0
4122 2 5.9358010992536707e+00 1.3746953733651701e+00 5.3359184702694931e+00 0 0 0
1549 1 8.9190526029979651e+00 1.5158328587714072e+00 5.0442991555656578e+00 0 0 0
1654 1 6.2341565482976176e+00 1.6819816543773727e+00 6.2775127041135965e+00 0 0 0
1907 1 6.5266250012960789e+00 5.8032432606236162e-01 6.3506137857883633e+00 0 1 0
3609 2 8.1537135312884246e+00 4.7258310713110800e+00 8.9409040743016632e+00 0 0 0
4175 2 8.4417024988315568e+00 1.8115269575503179e+00 7.8600616259105651e+00 0 1 0
2593 1 1.0340878640704542e+01 4.1480011354324544e+00 6.2955143325415008e+00 0 0 0
1955 1 7.6022613173073328e+00 4.0781022233245983e+00 6.4036144481753157e+00 0 0 0
1970 1 1.1433537829107932e+01 4.1201093808085565e+00 5.1380719467888323e+00 0 0 0
165 1 2.5956550548026103e-01 5.0776932552145793e-01 8.6244382425375345e+00 0 0 0
3881 2 8.5513950619504655e+00 3.4995700766146451e+00 8.9443437954233254e+00 0 0 0
3743 2 1.0619851315742045e+01 2.6774641547763443e+00 6.0688325148321747e+00 0 0 0
1407 1 8.6715897399231068e+00 2.3777298262302877e+00 8.8104702284303720e+00 0 1 0
2753 1 8.6510746714597655e+00 9.9492391163271299e-01 7.6888389213728479e+00 0 1 0
4078 2 7.0326959824001376e+00 1.6026472457197724e-01 5.2885209626236138e+00 0 1 0
1180 1 1.5390964201607140e+00 2.3459986970797195e+00 5.6335126884942559e+00 0 0 0
4123 2 1.0065625641151829e+01 4.0894502819501675e+00 7.1444981413531954e+00 0 0 -1
4220 2 7.3393829274175628e+00 2.0728406221744562e+00 7.4047450971272095e+00 0 0 -1
3106 1 1.0987865497802009e+01 4.0511411231512451e+00 7.1305139463708107e+00 0 0 0
2663 1 9.2879554539335913e+00 8.3107032188716412e-01 6.8523422259335840e+00 0 0 0
1114 1 2.6357904390596345e+00 2.2824169712310858e+00 5.2809599472765152e+00 0 0 0
1187 1 3.3208592198950235e+00 2.4547317204731858e+00 6.1477179539106972e+00 0 0 0
659 1 2.2763517422840938e+00 3.1165938464173588e+00 5.9143304387912394e+00 0 0 0
3713 2 3.1081342042533437e+00 3.1594085240867158e+00 5.6174407702213252e+00 0 0 0
698 1 2.3229976014279172e+00 1.9915514692303400e+00 6.2363933573981774e+00 0 0 0
1177 1 3.6888756127516080e+00 2.6918691579560274e+00 5.1616541623639920e+00 0 0 0
1853 1 4.2959564885943209e+00 2.1427687239305713e+00 6.1240974207377690e+00 0 1 1
3123 1 4.1867774931488277e+00 3.1645489961593758e+00 6.0390628943569027e+00 1 0 0
3577 2 5.0428532516750764e+00 2.6603987258097725e+00 6.0881516242825535e+00 0 0 -1
2060 1 8.7368770827411524e+00 2.7260617264875666e+00 6.4776142294521533e+00 0 0 0
1647 1 5.4485243751216572e+00 2.0133296381243344e+00 5.6234103682972156e+00 0 0 0
1049 1 6.3852716648647831e+00 2.3668762657569484e+00 5.4434689936855989e+00 0 0 0
2196 1 6.8422589420298516e+00 3.2985193371053465e+00 5.7719502368084425e+00 0 1 -1
1153 1 5.9798999969049254e+00 2.7681539276308817e+00 6.3286054496023718e+00 0 0 0
1171 1 7.7836055595489864e+00 3.6851808084419271e+00 5.4033871982211510e+00 0 0 0
1676 1 4.7822503577373441e+00 2.8015531442884378e+00 5.2474371100740642e+00 0 0 0
1527 1 9.2670671602126991e+00 4.6525507559908856e+00 9.3909634173186944e+00 0 0 -1
2044 1 6.1705053314355043e+00 1.2882025926323060e-01 5.4638725635665084e+00 0 0 0
227 1 2.8138445511323984e+00 3.7322971199410322e+00 8.7310178758787149e+00 0 0 0
2042 1 8.5673969997913382e+00 8.1226827001993451e-01 6.0566265243600181e+00 0 0 0
621 1 3.7967895826491462e+00 2.3222315643479241e-01 5.7291237146433822e+00 0 0 0
4187 2 9.9560080605872017e+00 1.6097901092897595e+00 6.7532057889752561e+00 0 1 0
3728 2 8.4943622045905727e+00 4.1848040479810242e+00 7.6855894655389099e+00 0 0 0
784 1 6.6800992764217542e+00 1.4199543151910452e+00 7.1973192640648476e+00 0 1 0
2116 1 1.1050511683592747e+01 3.3994829088330030e+00 5.8192161094124044e+00 0 0 0
1093 1 2.5248936466606837e+00 4.0986499566045955e+00 5.6237797857566276e+00 0 0 0
3787 2 5.6100709520673462e+00 4.3557361770264542e+00 7.0475231590061389e+00 0 0 0
2088 1 3.6571435478816232e+00 3.8035755041708046e+00 5.2788018713576594e+00 0 0 0
127 1 3.1554095492250465e+00 3.5930818551335943e+00 6.3284520592455786e+00 0 0 0
3749 2 6.9082313416913745e+00 4.1092340237787006e+00 8.1822435995179443e+00 0 0 0
1085 1 4.7383065357984897e+00 3.9437199937342875e+00 5.4127086153755659e+00 0 0 0
3016 1 4.0708109761813400e+00 4.1862833336310521e+00 6.2120088757167897e+00 1 0 0
2546 1 8.3770411921588064e+00 4.6476905718003314e+00 6.9453443527911354e+00 0 0 -1
1030 1 5.7846291735328306e+00 3.3895833566974720e+00 5.4801554117231586e+00 0 0 0
2126 1 1.0005254770483827e+01 1.3246944846798088e+00 4.8633438486182197e+00 0 0 0
1115 1 6.1152462948427200e+00 3.9346601495373963e+00 6.3555745168508695e+00 0 0 0
1635 1 8.4146701826817178e+00 1.8336016880146766e+00 6.0519170977138081e+00 0 0 0
2161 1 8.3509215266117813e+00 3.5583569091882685e+00 7.0344516912089148e+00 0 0 0
1694 1 8.5416301278450888e+00 4.4143022670876393e+00 5.0399603751514732e+00 0 0 0
624 1 5.2416729723198783e+00 2.5386874723326200e+00 9.2481463846101715e+00 0 0 0
70 1 2.3189482752835033e+00 2.8444445081894631e+00 9.4546968072091282e+00 0 0 -1
3961 2 2.5013563376067083e+00 4.5522088744403879e+00 9.2207715340859373e+00 0 0 0
3989 2 1.0014991925920601e+01 3.2940722684462647e+00 8.6260139152019253e+00 0 0 -1