LAMMPS data file via write_data, version 12 Dec 2018, timestep = 249480

4320 atoms
2 atom types

0.0000000000000000e+00 1.9309999999999999e+01 xlo xhi
0.0000000000000000e+00 1.9309999999999999e+01 ylo yhi
0.0000000000000000e+00 9.6549999999999994e+00 zlo zhi
7.2991799999999980e+00 0.0000000000000000e+00 0.0000000000000000e+00 xy xz yz

Masses

1 1
2 1

Atoms # atomic

2850 1 9.5467557568785235e+00 2.2467745202956082e+00 2.3607794495757943e+00 0 1 0
1484 1 7.1191612850260269e+00 3.7882698661918324e-01 2.1811363994763129e+00 0 0 0
2330 1 9.2544791771517154e+00 2.8799243720168127e-01 1.1751748783924181e+00 0 1 1
3798 2 9.5547545421795146e+00 9.8347305119419348e-01 3.7163270500045091e+00 0 1 0
1098 1 7.5816902080484558e+00 2.7606156285422951e+00 1.3154029152199989e-01 0 0 1
1870 1 7.7156275088230846e+00 1.6908038349205985e+00 6.5850274091094985e-01 0 1 1
2754 1 9.5989273120342240e+00 4.0476140690152157e-01 3.0071772898545470e+00 0 1 0
2823 1 1.1129418680358093e+01 4.3866824999270193e+00 3.0289172576276959e+00 0 1 0
1544 1 8.5438427152610661e+00 2.5438113825477582e+00 7.6587272226843761e-01 0 0 0
851 1 1.1642485455351139e+00 7.4981288488870868e-01 7.0148431815961354e-01 0 1 0
3635 2 8.8438864556709387e+00 8.9320389250435006e-01 4.6507853240963453e+00 0 0 1
1190 1 2.1866367498491797e+00 1.0155907872451908e+00 4.7662632251693998e-01 0 0 1
2108 1 6.0176453990450192e+00 3.8586418536326952e+00 4.6337922209493172e+00 0 0 0
1913 1 3.1438648740374546e+00 1.3169116141995494e+00 4.8201759032433218e+00 0 1 0
1127 1 2.9935539875871449e+00 3.4280956899273168e-01 3.6813912098198298e-01 0 0 1
1554 1 3.0894988564362924e+00 1.4884374625818175e+00 9.1405438487030854e-01 0 0 1
4042 2 2.3906173131108597e+00 1.2019943978677166e+00 4.3468099958204656e+00 0 1 0
95 1 3.6437569948493347e+00 6.6529578290916092e-01 1.3406004145415920e+00 0 0 0
2174 1 4.1364369944544617e+00 5.6382007589836036e-01 4.2422752072434233e-01 0 1 0
2468 1 9.1346178321325002e+00 3.4020982747406605e+00 1.0733183548457492e+00 0 0 0
870 1 4.1782349405885775e+00 1.6566342074890188e+00 1.3045842863173123e+00 0 1 1
1798 1 5.0279128107553950e+00 1.1192934038460043e+00 6.6051204998089108e-01 0 1 0
2689 1 8.6556443518204986e+00 2.2855013965996851e+00 2.8336674858898152e+00 0 0 0
906 1 7.8311315886343440e+00 2.7566733546634743e+00 2.3799060576052948e+00 0 1 0
1615 1 5.8424818815528248e+00 1.7116355448558684e+00 8.4859788173654904e-01 0 0 1
976 1 5.3410115101030762e+00 2.1438815147853443e-01 4.3076547731254591e+00 0 0 0
1357 1 5.2444508808491799e+00 5.7333560903266823e-01 1.6136466650832937e+00 0 1 1
767 1 6.8641856535400736e+00 1.7970738630584560e+00 1.2592791100648619e+00 0 1 0
543 1 9.0889558347683752e-01 1.5501039289815692e+00 4.2843950366396939e+00 0 0 0
3468 2 6.6814859333283856e+00 2.6828572943199491e+00 1.0248859220826689e+00 -1 0 1
2132 1 9.0020192235947363e+00 1.5390343396437252e+00 4.1680028691940390e+00 0 0 0
1671 1 8.6784890420676000e+00 4.3540199037990597e+00 8.8504764614078446e-01 0 0 1
1979 1 8.8298057538837238e+00 3.3694739393036359e+00 2.2319829217532425e+00 0 0 0
3771 2 8.3371283332926787e+00 3.9444095920274487e+00 3.7338164113129184e+00 0 1 -1
1066 1 9.7539711836314247e+00 4.1830045587340141e+00 5.5831002558275922e-01 0 0 0
4063 2 8.8829671594788007e+00 8.3365917593839389e-01 2.8352063282778150e+00 0 1 1
3587 2 6.7364546049554086e+00 4.8111287438435912e+00 2.2744827594336772e+00 0 0 0
1493 1 1.0066749298657585e+01 1.7109695222053614e+00 3.9322075684833182e+00 0 0 0
2201 1 7.6864437429330295e+00 4.4584582398569168e+00 1.0545299200159395e+00 0 1 0
1122 1 9.3692959269507625e+00 1.9847114752406729e+00 1.4135444898424290e-01 0 0 0
622 1 1.1485638210805633e+00 2.4658247674083502e+00 9.3952607623104401e-01 0 0 1
3750 2 1.5016617543236153e+00 1.5067619984300649e+00 1.0004777967937399e+00 0 0 1
34 1 2.1939521388306806e+00 2.0784452442012431e+00 6.2015805036895733e-01 0 0 0
1065 1 1.6861993295833224e+00 2.0963703040632709e+00 1.7318925582215825e+00 0 0 0
968 1 3.5033985588701553e+00 2.3826270033275136e+00 6.6316408820785355e-01 0 0 1
3708 2 2.4883690707058888e+00 1.8470427892398913e+00 2.1330752213525446e+00 0 0 0
1166 1 2.6842722780747841e+00 2.3700285720178691e+00 1.4687119158487050e+00 0 0 1
3768 2 3.2079134286422777e+00 3.2809363167521339e+00 5.5737173128343742e-01 0 1 0
3688 2 1.6638232832256334e+00 3.5893959546505219e+00 4.6118103671514863e+00 0 1 0
3757 2 5.0051955204805898e+00 1.9265532841350153e+00 1.0060366110056200e+00 0 0 1
1764 1 4.4962937182466671e+00 2.5752345336162517e+00 6.5877473252869523e-01 0 1 0
1617 1 5.6500123138860108e+00 2.6613187094105890e+00 7.1192763116262858e-01 0 0 1
1785 1 6.4918907754955519e+00 1.0762745390437982e+00 2.6532741056805582e+00 0 1 0
1499 1 6.7228708557866632e+00 2.1757026343606034e+00 2.9537975772524966e-01 0 0 1
4116 2 2.7954548108200141e+00 5.2953477730985399e-01 1.2525288336767941e+00 1 0 -1
1505 1 3.1542354698081474e+00 4.0780832384439263e+00 3.6414384524677446e+00 0 0 0
1667 1 9.4043929973830558e+00 9.7997777039571843e-01 2.0471079914726675e+00 0 0 1
3793 2 6.3515590238113138e+00 3.7202553812588862e-01 2.8060965803770760e-01 0 1 0
2076 1 7.5748790535136816e+00 2.2211991177801522e+00 3.2922793833724238e+00 0 0 1
1489 1 9.4622580426773375e+00 2.4118388807547637e+00 3.4720131447118820e+00 0 0 0
2275 1 1.0563945842190920e+01 4.0837895557765869e+00 1.3450707569045692e+00 0 1 0
1897 1 8.0943439994171698e+00 6.8014165165797147e-01 1.7555086124648183e+00 0 1 1
1029 1 5.4866734799754928e+00 2.1447551578861765e-01 6.0135747154617047e-01 0 0 0
4238 2 1.4989875280440272e+00 3.7846714311734790e+00 1.8074922260740873e+00 1 0 0
2081 1 9.7078403437594663e+00 3.4265628011618925e+00 3.8336662591943522e+00 0 0 0
656 1 2.3732810883825306e+00 3.1728070410152593e+00 6.7836144103108287e-01 0 0 1
2996 1 2.0561074766824134e+00 4.3131063925205817e+00 1.2393649530649302e+00 1 0 0
1380 1 6.0552597894466169e+00 2.2049072688732724e-01 2.1456123394594107e+00 0 1 1
1538 1 8.2717438784611268e+00 1.3962488695296782e+00 3.3397501811477137e+00 0 0 0
668 1 1.9950454278941168e+00 3.1238868486342986e+00 1.7078575738131776e+00 0 0 0
124 1 4.0613178373303951e+00 3.9895722542721503e+00 4.3124588548576499e+00 0 0 0
3764 2 7.0619199895295095e+00 1.2421410144178333e+00 1.9366505262416025e+00 0 1 -1
1019 1 4.0036427985059557e+00 3.4759876869807971e+00 1.0083028671433916e+00 0 0 0
1198 1 3.0472968151566535e+00 3.8376628416648901e+00 1.2402682495242099e+00 0 1 0
3627 2 3.9376865795895881e+00 4.3612236809327536e+00 7.6448907255043608e-01 0 0 1
2159 1 9.1196745970137858e+00 4.3000017773116417e+00 3.9805541245033917e+00 0 0 0
1242 1 4.0887306820580660e+00 1.5385644464354340e+00 2.7211031013601161e-01 0 1 0
567 1 5.0788504448900555e+00 3.4529727724235078e+00 1.0599980658473289e+00 0 0 0
669 1 4.5814030090697404e+00 4.3605640728169384e+00 1.3752553556327327e+00 0 0 1
3865 2 5.2892037239987424e+00 4.4495666799712001e+00 7.3364931450640924e-01 0 0 0
1051 1 4.6061877815828129e+00 3.9418635182129771e+00 2.8330280735983587e-01 0 0 0
2098 1 5.6664861499144337e+00 3.8075330423924365e+00 2.9832979689638045e-01 0 0 1
1858 1 7.3383321628558793e+00 2.1839963526739061e+00 4.3475326227228974e+00 0 1 0
2120 1 1.0375263950776684e+01 2.7551242778880494e+00 4.4850961925231170e+00 0 0 0
503 1 7.2409246842831436e+00 3.4710980655015429e+00 8.5902865561045971e-01 0 0 0
1506 1 6.2112799814427833e+00 3.4815718099578716e+00 1.1993327181558884e+00 0 0 0
1564 1 6.9388852679032409e+00 4.3969065890248480e+00 1.8913088125429803e-01 0 0 1
1572 1 6.7281753441953445e+00 4.3357682962003077e+00 1.3707242522374370e+00 0 0 1
1818 1 4.9393103832451279e+00 9.6889704113653843e-02 3.2449304420023699e+00 0 1 1
253 1 1.7085187687191030e+00 2.9105636041185484e-01 1.4473788864229693e+00 0 1 0
1458 1 6.4281092692815278e+00 2.2812086047291574e-01 1.1314479392736234e+00 0 0 0
1470 1 8.1818046899904751e+00 3.5102212552826710e+00 1.4565002380434944e+00 0 0 0
1167 1 2.4583005579012260e+00 2.1280907485847029e+00 4.6359818146525171e+00 0 0 0
1485 1 9.3860296415651128e+00 1.4565011824861400e+00 3.0240062222957147e+00 0 0 0
818 1 1.8172910367660335e+00 3.3359911656072216e-02 1.2298972534092566e-01 0 1 0
1455 1 8.0108336750289020e+00 4.7002865749100015e-01 2.8584550755907276e+00 0 0 0
715 1 1.9434811715007203e-01 3.8186785534383955e-01 2.8998638117679199e+00 0 0 0
2250 1 8.4121801165915464e+00 2.3817775887393355e+00 3.8955344356207644e+00 0 1 0
1000 1 1.2534050735775135e+00 1.1456632803338707e+00 1.7972925064641578e+00 0 0 0
4214 2 7.6525907582436825e-01 1.0574943109356481e+00 2.5693391342644070e+00 1 0 0
2555 1 1.0860830334465165e+01 3.6651581790697341e+00 3.9263627670439774e+00 0 0 0
159 1 2.0501172276856749e+00 6.2071966963429792e-01 2.4364258334526134e+00 0 0 0
992 1 1.2336285662974753e+00 7.1974576922709299e-01 3.3462594331123054e+00 0 0 0
2854 1 9.3963301599804812e+00 2.4197864533230611e+00 4.5142398298344881e+00 0 1 0
1134 1 2.6077402294742624e+00 1.4271799581226758e+00 2.8117994093376426e+00 0 0 1
1040 1 3.3517676729152419e+00 1.5545757313646333e+00 1.9454965857546556e+00 0 0 0
3588 2 1.4487673975434363e+00 3.5309295630982662e+00 3.5021357615034301e+00 0 0 0
1783 1 4.1775594487769707e+00 9.7141194331379821e-01 2.2292490353795866e+00 0 1 0
3878 2 4.4770468574036340e+00 8.1257274963717308e-01 1.2669917426232156e+00 0 0 1
631 1 3.6032824959405190e+00 1.3074572056942726e+00 3.0269617607767181e+00 0 0 0
3756 2 5.9116297893403456e+00 8.6864449558040380e-01 8.4457701323390444e-01 0 0 1
559 1 1.7226063397713471e+00 4.3339119228611702e+00 4.1299322439272528e+00 0 0 0
575 1 4.5766638263605808e+00 1.0590325402876579e+00 3.2414544828112657e+00 0 0 0
722 1 5.1261233248084048e+00 1.5561714244042806e+00 1.8280600874488313e+00 0 1 0
1147 1 5.3879748070537783e+00 8.9921203487391721e-01 2.6416392760786311e+00 0 0 1
1351 1 6.1276808567489605e+00 1.2066399442718572e+00 1.6994764267368123e+00 0 1 0
3775 2 6.7739978906991176e+00 1.8652261920963225e+00 3.0461302180770091e+00 0 1 0
548 1 4.9371545989749368e+00 3.4124155281614925e+00 4.6361057311160740e+00 0 0 0
1696 1 6.7170807784291826e+00 4.6672091261663295e+00 4.1940494744478967e+00 0 0 0
3503 2 7.0367875410032452e+00 2.9076100669741645e+00 3.8003849094115338e+00 -1 0 2
717 1 1.4325999200793766e+00 3.5166417791018354e+00 8.1645687290483104e-01 0 0 1
1684 1 1.0110821425628211e+01 4.3962464451850112e+00 3.4470030403086489e+00 0 0 0
2538 1 9.5357187856695642e+00 2.3809980283600463e+00 1.2058160244941221e+00 0 0 0
1622 1 7.4717025181785495e+00 4.2833016510855311e+00 3.6658705198353281e+00 0 0 0
1855 1 7.2343372141717479e+00 8.6304895274102511e-01 1.1878063742872333e+00 0 1 1
1471 1 9.6974074815631006e+00 6.4557351179125966e-01 4.5627247227366610e+00 0 0 0
1965 1 8.6329927322548308e+00 2.3921232470431351e+00 1.8089961545752904e+00 0 0 0
1651 1 7.0087241445370116e+00 4.2040258651118112e-01 3.2991280188934522e+00 0 0 1
2642 1 1.0555220766676193e+01 2.6434820654154021e+00 2.3135895551204748e+00 0 0 0
1376 1 1.6038376585771541e+00 1.7242510717962778e+00 2.6627488565959374e+00 0 1 0
3606 2 1.5273564412972407e+00 2.6433274445174821e+00 2.3716949541285999e+00 0 0 0
2941 1 2.3509884839106530e+00 2.6939064674827136e+00 2.5447555401084716e+00 1 0 0
3608 2 2.2165176985001951e+00 2.1087510568372978e+00 3.1855589044013368e+00 0 0 0
3128 1 1.5732514623948246e+00 2.6270592684247118e+00 3.2879537962699334e+00 1 0 0
555 1 2.3460340289146302e+00 1.1855604318654631e+00 1.5615631924134388e+00 0 0 0
505 1 3.7759442464577808e+00 2.6298814818339986e+00 1.6552997365977524e+00 0 0 0
663 1 3.3160397129004577e+00 2.3589694714461684e+00 2.6619221101806376e+00 0 0 0
3686 2 2.9142441004736455e+00 3.1489950390209080e+00 1.9204236067035612e+00 0 1 0
1446 1 4.2549851493686752e+00 2.9988821219128812e+00 2.6233562946016367e+00 0 0 0
568 1 4.1881463518070756e+00 1.9536728507568475e+00 2.3846350745963196e+00 0 0 0
3703 2 4.5150008279347968e+00 3.4111085419016645e+00 1.7449536150243317e+00 0 0 0
3533 2 5.0312283296693181e+00 1.6421441510421033e+00 2.8000329817133172e+00 0 1 0
1462 1 4.8563061315805225e+00 2.5408882048137276e+00 1.5864006395761336e+00 0 0 0
1511 1 5.0841565785766729e+00 2.5016197468880290e+00 2.6442924949519031e+00 0 0 0
1561 1 5.6029399058730869e+00 3.2058319396901891e+00 2.0339776285221638e+00 0 0 0
2197 1 5.9977751690053021e+00 1.9169418444195232e+00 2.7348250449422267e+00 0 1 0
566 1 5.9745963931439530e+00 2.2720652544079645e+00 1.7118167919978398e+00 0 0 0
1437 1 6.7995152829284065e+00 2.9446325520564582e+00 1.8113581260810814e+00 0 0 0
2101 1 6.9407687492285737e+00 2.0325026432239905e+00 2.2303078690787261e+00 0 0 1
3946 2 6.2837090239914239e+00 2.6692866676783393e+00 2.4106181276450567e+00 0 1 0
1721 1 5.9251477188201855e+00 2.9926913393185637e+00 3.1038701102414867e+00 0 1 0
2421 1 6.9560653493519533e+00 3.0082759745826677e+00 2.8615720429695419e+00 0 0 0
1441 1 9.2669692514760662e+00 3.0352108853716073e+00 1.2689187400234000e-01 0 0 0
1076 1 1.0182353523425146e+01 3.0247638131404764e+00 5.4171908921497192e-01 0 0 0
599 1 2.2693255757528590e+00 7.2345542490966253e-01 3.5562204664027011e+00 0 0 0
991 1 7.4495769384848778e+00 1.2992050141804041e+00 2.7595092848568501e+00 0 0 0
2145 1 8.8147244206219639e+00 3.2649014083584702e+00 3.3548826735159691e+00 0 0 0
1689 1 8.7498602311095510e+00 3.4263265411470267e+00 4.4267620797900111e+00 0 0 0
3631 2 2.8689369650217280e+00 4.6517694298846077e+00 1.0006348328100692e+00 0 0 1
166 1 7.4685493669022451e-01 1.6847875352032287e+00 3.2396137656708688e+00 0 0 0
2176 1 8.7580212715917032e+00 5.7958745675784484e-01 3.8219313731267057e+00 0 1 0
4056 2 1.0426002623028593e+01 3.6094460511815356e+00 3.1703652237778019e+00 0 0 0
1766 1 4.6324675774726396e+00 4.3679619522911543e-02 2.2843734246334608e+00 0 1 0
1682 1 6.5467969911024451e+00 3.6614143011065234e+00 3.7246317684044232e+00 0 0 0
1039 1 2.4719037286497789e+00 3.7898505650437024e+00 2.2717735163838366e+00 0 0 0
1621 1 6.5701683549368859e+00 4.6261373657092602e+00 3.1641580734783723e+00 0 0 0
3619 2 2.3230790030608448e+00 3.3343464783612102e+00 3.0671827254421333e+00 0 0 1
586 1 1.6043555569267498e+00 3.4529795512536792e+00 2.6336609301690013e+00 0 0 0
1022 1 2.2113551091019978e+00 4.1891668958223365e+00 3.2068369212851606e+00 0 0 -1
1160 1 7.7980695361520560e+00 1.7189093653373386e+00 1.6891414795119242e+00 0 0 0
1440 1 3.1805431179255814e+00 3.3599972982289263e+00 2.8346019674165803e+00 0 0 0
664 1 3.7632878703464661e+00 3.7490524285550171e+00 2.0522745124091561e+00 0 0 0
3040 1 2.5003644805543677e+00 4.2851870407172257e+00 2.0546754912418483e-01 1 0 0
3121 1 8.0887590875494109e+00 4.2135946291164590e+00 4.5106629754637861e+00 0 0 0
994 1 4.1097733441958173e+00 4.0594550802316256e+00 3.2229203116375178e+00 0 0 0
1428 1 5.6812244638585145e+00 4.3050988900990017e+00 1.6530603311272263e+00 0 0 0
1472 1 8.3675682607308026e+00 4.3748964080457196e+00 2.0636414009573421e+00 0 0 0
534 1 5.6664742353196713e+00 3.9875951914374865e+00 3.0433546599349266e+00 0 0 0
1271 1 4.9055945117300759e+00 3.8753112598656441e+00 2.3651051548762321e+00 0 1 0
952 1 7.6132304917440736e+00 2.5988805627215914e+00 1.2147740705525973e+00 0 0 0
3838 2 5.9647828248165347e+00 4.3109333845248665e+00 3.8618118315202326e+00 0 0 0
2946 1 8.2557212669140423e+00 4.3356947305436921e-01 7.4836895830248229e-01 0 0 0
1072 1 7.3255735714134644e+00 3.7792723032016986e+00 1.9544392137973314e+00 0 0 0
1535 1 6.3756085204417383e+00 3.8769295419350471e+00 2.3833337951071951e+00 0 0 0
3964 2 7.0886651764256019e+00 3.8963715811835113e+00 3.0212649308164794e+00 0 1 0
3127 1 2.1785312793925273e+00 3.4828869535377627e+00 3.9147036238462314e+00 1 0 0
3602 2 6.4509468957080678e+00 6.4723604938685342e-01 3.9229344669700708e+00 0 0 0
964 1 9.3900237163416378e+00 4.2393389818440230e+00 1.6493641490963777e+00 0 0 0
1425 1 7.8212884427792977e+00 3.2419235827516508e+00 3.9834756136838547e+00 0 1 0
574 1 2.7131554999511396e+00 4.1084691010202921e+00 4.5788960636374805e+00 0 0 0
987 1 5.0674255358820472e+00 1.9415346584156989e+00 5.6235899051420735e-02 0 0 0
3460 2 8.1514168004766070e+00 2.8631064193990543e+00 3.1535236671877103e+00 -1 0 0
3730 2 1.0695747328843227e+01 3.3269939043097607e+00 1.7910054936605060e+00 0 0 -1
1906 1 6.1289080124710926e+00 8.5602286604052247e-01 4.6890347428794756e+00 0 1 0
2428 1 1.0754207983581900e+01 4.1342365235072611e+00 3.0605677202805665e-01 0 1 1
2084 1 8.0166149837670169e+00 4.5167924097746956e+00 3.4410242788412405e-02 0 0 1
3676 2 7.9727756564204570e+00 1.9201737906123597e+00 2.5588889329634865e+00 0 1 1
751 1 3.8456835786157160e+00 3.0320094056554825e-01 3.0272423340520564e+00 0 1 0
1584 1 6.7996716218524522e-01 3.9836060660850003e-01 4.2478601215921508e+00 0 0 0
2386 1 1.0140287323734150e+01 1.6314100173018353e+00 1.7642131000556736e+00 0 1 1
652 1 1.6281889226658177e+00 7.3770386323376025e-01 4.3872759368801617e+00 0 0 0
1439 1 1.0258929179913824e+01 4.0389968819958399e+00 2.3549574453872260e+00 0 0 0
962 1 1.7556460386478911e+00 4.4693428542528277e+00 2.2910669289535726e+00 0 0 0
4264 2 3.0102883410968460e+00 6.7305378207431965e-01 3.1553019419232720e+00 1 0 1
1054 1 3.2931097189304057e+00 6.9115308207512427e-01 3.9543641782492482e+00 0 0 0
481 1 2.8909500158820998e+00 1.6523747075455995e+00 3.8066691536020296e+00 0 0 0
235 1 4.0343793066020401e+00 1.4970013497987640e+00 4.1235575608519097e+00 0 0 0
4242 2 9.2665325605648512e+00 1.7679514730812489e+00 1.7417381239092375e+00 0 0 1
3856 2 5.3638083009561672e+00 7.7250294848834111e-01 3.6678455649832724e+00 0 0 0
2360 1 5.1504541366473031e+00 1.2696968677516189e+00 4.3107947251957608e+00 0 1 0
30 1 5.0222788447038518e+00 4.2619324961948122e+00 3.9268083238839928e+00 0 0 0
4281 2 1.0212211190736447e+01 2.1238974245964397e+00 6.6575116099998588e-01 0 1 0
1950 1 7.1254452119217362e+00 1.3111129041754517e+00 3.7209069037753850e+00 0 0 0
4029 2 6.5105707725192490e+00 1.5637692894170558e+00 4.3095160956521585e+00 0 1 0
580 1 6.0452043977074998e+00 1.2543540979488814e+00 3.5518449372602476e+00 0 0 0
878 1 7.1917659254780117e+00 5.0291252596921299e-01 4.4605089622554051e+00 0 1 0
1103 1 7.9881644711270337e+00 1.2447223410924944e+00 4.4299888706391339e+00 0 0 0
4147 2 1.0972912345841436e+01 4.5430071209090777e+00 2.1947686550117238e+00 0 0 0
4006 2 1.0446018375147530e+01 3.6165967117152773e+00 4.7715304061790080e+00 0 0 0
550 1 3.1870550755437241e+00 4.4679457131066540e+00 2.6148631395886066e+00 0 0 0
1519 1 8.5656883187287089e+00 1.4077794349511330e+00 2.3262178475127397e+00 0 0 0
1711 1 8.2088973171924060e+00 3.4812649855887616e+00 4.4930225510649141e-01 0 1 0
1359 1 6.5135068470232858e+00 1.1650549880039771e+00 2.9318750628091844e-01 0 1 1
2544 1 9.9975660096163192e+00 4.3536025761677610e+00 4.4358683762636915e+00 0 0 0
2056 1 9.6624085673072653e+00 1.3391745724419930e+00 8.9355962929691557e-01 0 0 1
1117 1 3.4348625274837277e+00 4.0167050098214849e+00 2.3152866989375626e-01 0 0 1
2340 1 8.4938315877917638e+00 1.1897662538469278e+00 7.9031582054173183e-02 0 1 1
1457 1 8.4476398354467861e+00 4.5556404452829380e+00 3.1543211822544381e+00 0 0 0
2063 1 9.2967515777198972e+00 4.1721793314351414e+00 2.7907349954284464e+00 0 0 0
1983 1 1.0545385616840006e+01 2.7758091723096303e+00 3.4151521659696966e+00 0 0 0
1165 1 1.8427801719351595e+00 1.6866731609283678e+00 3.7828264800220035e+00 0 0 0
802 1 1.6846072884182148e+00 2.7178302734213808e+00 4.3455916474730056e+00 0 1 0
572 1 2.7806057705637270e+00 2.6866686960357362e+00 3.5940631038385926e+00 0 0 0
1988 1 9.8406031873870603e+00 3.1358658066021241e+00 1.7751906341946979e+00 0 0 0
2631 1 9.7099889410092253e+00 3.2069961901303250e+00 2.8427846303075186e+00 0 0 0
3719 2 2.9975232312920737e+00 3.3191266892560436e+00 4.1969185457446123e+00 0 0 -1
4119 2 3.5754854107155065e+00 2.1099743276178300e+00 3.5483100409300325e+00 0 0 0
1007 1 3.5460307719261221e+00 2.3375757196775755e+00 4.3932518859229761e+00 0 0 0
2164 1 3.7647373037108007e+00 3.0708943763195151e+00 3.6356655719842839e+00 0 0 1
3884 2 4.1626007458515675e+00 3.0528843074562624e+00 4.3902444675160535e+00 0 0 1
1062 1 4.3873569623580488e+00 2.2073624228903439e+00 3.3475228815005562e+00 0 0 0
1194 1 5.3754952899094794e+00 2.0518605192350607e+00 3.5661942597406644e+00 0 1 0
814 1 4.7019115171881021e+00 2.2833763085343683e+00 4.3220150039909742e+00 0 1 0
1081 1 4.8049712700529277e+00 3.1962362723413582e+00 3.5682341712039092e+00 0 0 1
860 1 5.7043354488726674e+00 3.0166850889152492e+00 4.0999220524879112e+00 0 1 1
970 1 4.5161878013452910e+00 4.7735431072681562e+00 4.7548871314551695e+00 0 0 0
1678 1 7.9010978522536117e+00 3.6594452324588835e+00 2.8853801030506121e+00 0 0 1
1071 1 5.8934454126915865e+00 2.1140820186680243e+00 4.6737376385936651e+00 0 0 -1
1573 1 6.4492808606405800e+00 2.2542896698510937e+00 3.7560653340670380e+00 0 0 0
537 1 6.6090134665917724e+00 2.9369002554093027e+00 4.5769042522868482e+00 0 0 0
1880 1 7.4680387545945557e+00 4.6007960030280932e+00 2.6530680312045511e+00 0 0 0
4041 2 7.7949534623473369e+00 7.4138552026281057e-01 3.7122958961382464e+00 0 1 0
2513 1 8.6657067596830526e+00 1.4671773248067794e+00 1.2113835583326116e+00 0 0 0
386 1 4.3083658920876111e+00 4.0721915469016512e-01 4.1498988228797247e+00 0 1 0
21 1 1.2472193909513833e+00 1.7425347625929088e+00 1.4025305562849097e-01 0 0 0
1358 1 3.1144866437459591e+00 6.2302708426333164e-01 2.3084735282138906e+00 0 1 1
513 1 3.4277154540044585e+00 4.7985109014603502e+00 4.7803817042214360e+00 0 0 0
1550 1 8.2417184680226274e+00 2.0931067830621553e-01 4.6799699849474585e+00 0 0 0
1513 1 6.0774413552811186e+00 4.7485478835134556e+00 6.6039908619317678e-01 0 0 0
1644 1 7.1104215969884823e+00 3.9031618348582184e+00 4.6505629191293512e+00 0 0 0
1531 1 7.4640650426228792e+00 7.7772671654997294e-01 1.1236814369950553e-01 0 0 1
1073 1 5.9450280861573548e+00 1.7235728640903186e-01 3.3530714550336040e+00 0 0 0
50 1 3.5779744495660513e+00 4.6332083078768784e+00 1.4564491045285437e+00 0 0 0
3030 1 1.1469527260699987e+01 4.8265726910076898e+00 3.7524463549059262e-01 0 0 0
817 1 1.0957627928510221e+00 2.3978455276417296e-01 2.3955084950125798e+00 0 1 0
1001 1 6.5397229602211038e+00 3.2822533668064753e+00 4.5039404308050313e-02 0 0 0
655 1 4.1749584796051940e+00 4.7306730073828920e+00 2.3509690835730979e+00 0 0 1
625 1 4.7920803645721810e-01 1.0568602844663555e+00 2.6977145996206212e-02 0 0 1
2522 1 1.0020498209585549e+01 4.6198215150145732e+00 6.6449522203743223e+00 0 0 0
370 1 1.8996854397908387e+00 4.9023222500102182e-01 8.1813481298329389e+00 0 1 0
186 1 4.1499084098245973e+00 4.2822138228323734e+00 8.3356736922535752e+00 0 0 0
1634 1 8.1309926951983762e+00 4.1038569516850885e+00 7.5218940932664911e+00 0 0 0
1504 1 6.5323350003333065e+00 4.7650848468933953e+00 5.1771471065891248e+00 0 0 0
1050 1 5.0375048904126842e+00 3.1184921258325105e+00 9.5652325908529008e+00 0 0 -1
2156 1 1.0867974366536208e+01 3.5794538101721436e+00 7.7615163287280993e+00 0 0 0
1129 1 9.8282984170303092e+00 3.8446768472140112e+00 7.5174790623389329e+00 0 0 0
3364 1 7.8432818785191802e+00 2.8701055535522246e-01 6.0826486919237306e+00 0 1 0
1184 1 5.9290964054794522e+00 4.6005329292654791e+00 6.0799327299996548e+00 0 0 0
889 1 6.6856928893796788e+00 1.7033355208961785e+00 5.1070954819497683e+00 0 1 0
4064 2 5.9025443753657507e+00 1.3579377063851791e-01 7.6368563277410013e+00 0 1 0
538 1 5.2211376115653501e+00 3.2836229717904725e-01 6.2438339899497350e+00 0 0 -1
3565 2 7.3882551719886642e+00 4.7504015794642553e+00 4.8435797217798218e+00 0 0 0
1527 1 9.9005002346450368e+00 4.7552272177892174e+00 9.3676826384737044e+00 0 0 -1
913 1 1.8726137134081156e+00 1.4465010734533870e+00 6.2249886693846426e+00 0 1 0
2034 1 1.1047787204978759e+01 4.1608917842119872e+00 5.1419871616516026e+00 0 0 0
1549 1 9.3115860431427677e+00 1.3903317768768360e+00 5.2534841098251182e+00 0 0 0
3611 2 3.4227825750201384e+00 6.4773808971839741e-01 5.4444215910939819e+00 0 0 1
3752 2 2.6763917661410312e+00 1.7465737479467149e+00 5.4934558919302345e+00 0 0 0
526 1 2.6495300110350382e+00 9.2678869307718437e-01 5.8266330445376138e+00 0 0 -1
1080 1 3.6802184764324686e+00 1.5280491700320924e+00 5.7431829059453872e+00 0 0 0
2364 1 1.0395336518904848e+01 2.2967658737707772e+00 6.3659010928816482e+00 0 1 0
3546 2 9.5057368837347092e+00 3.2176220296710856e+00 5.7985244408341865e+00 0 1 0
3918 2 2.6536290561529987e+00 8.6660244664107910e-01 9.4230223052759712e+00 0 1 -1
1498 1 3.5080548639153508e+00 7.4557431407866914e-01 6.4716654122686093e+00 0 0 0
1683 1 4.5234757801148255e+00 1.0534813431498178e+00 6.3311427901675073e+00 0 0 0
1199 1 4.7765498334263574e+00 1.7311248725326711e+00 5.2361508604337725e+00 0 1 0
4081 2 4.2239321586916851e+00 3.8677885320059970e+00 9.1612145254841924e+00 0 0 -1
1722 1 6.6391572060790658e+00 2.6002559924401890e-02 8.1787562994839824e+00 0 1 0
1349 1 6.0708108575048145e+00 8.6405797184633115e-01 5.7580848378316301e+00 0 1 0
1612 1 8.3248705372305754e+00 2.6913454369239620e-01 8.0254261875084723e+00 0 0 0
2044 1 6.6469145332060480e+00 1.7063209923827460e-01 5.3020722299637750e+00 0 0 0
1654 1 6.7961250806707474e+00 1.8058866801074702e+00 6.2292267208005789e+00 0 0 0
1907 1 6.8881213805307677e+00 7.0226853444220283e-01 6.5247175643960471e+00 0 1 0
1099 1 2.2510610946480254e+00 4.3582715875925322e+00 6.4093308445646224e+00 0 0 0
4175 2 8.9642337088673756e+00 1.7702375762721541e+00 7.8479002153983188e+00 0 1 0
2593 1 1.0923331961924038e+01 4.1083617585733716e+00 6.2161256170692170e+00 0 0 0
1955 1 7.9945514454089652e+00 4.0437804499290468e+00 6.4362065926054060e+00 0 0 0
1212 1 9.5214058887158757e+00 7.9139314351661150e-01 9.5760004868551505e+00 0 1 -1
1402 1 4.7651213005072837e+00 1.2459577691350755e-01 9.3177918831028919e+00 0 1 0
3881 2 9.1734542749161250e+00 3.4341007944063646e+00 8.9211468761787369e+00 0 0 0
695 1 8.5093881407416783e-01 1.5941242831644509e+00 5.9146562047995239e+00 0 0 0
1407 1 9.2026771223197557e+00 2.5368524025646391e+00 8.8774678753785938e+00 0 1 0
2753 1 9.1364694537345734e+00 9.1035260876062585e-01 7.6890340195073668e+00 0 1 0
70 1 2.9342154587557667e+00 2.7182585626123728e+00 9.5417803293223340e+00 0 0 -1
1180 1 2.1517647270765159e+00 2.3759590756418003e+00 5.6976575277949424e+00 0 0 0
4123 2 1.0642041550348534e+01 4.0822083917118013e+00 7.0327693113355796e+00 0 0 -1
4220 2 7.8909309402219279e+00 2.1892986165824659e+00 7.4969763691051154e+00 0 0 -1
675 1 1.9075233742882243e+00 3.2974434746989711e+00 6.2537163149864545e+00 0 0 0
1674 1 9.0703469535425629e+00 1.5252611583935807e-02 7.1826527332911754e+00 0 0 0
1114 1 3.2504719739025929e+00 2.4484322997199581e+00 5.4088368587020357e+00 0 0 0
1187 1 3.9743133117065375e+00 2.4289360236997242e+00 6.1722675052079401e+00 0 0 0
659 1 2.9065307217593750e+00 3.0529124348126264e+00 6.1734425262488557e+00 0 0 0
3713 2 3.6578687914149208e+00 3.1446176270497559e+00 5.7531712595963915e+00 0 0 0
698 1 2.8845161034921798e+00 1.9416247928743344e+00 6.3093236292426367e+00 0 0 0
1177 1 4.2557286079495427e+00 2.7033752183152808e+00 5.2532397243146738e+00 0 0 0
1853 1 4.9168158285242249e+00 2.1189471956066002e+00 6.2948035246166532e+00 0 1 1
3123 1 4.8787219359225897e+00 3.1538356145505526e+00 6.0093582683839788e+00 1 0 0
3577 2 5.7177834354775339e+00 2.7772865302780492e+00 6.1148214938374812e+00 0 0 -1
2060 1 9.3287565785337545e+00 2.6198082166066081e+00 6.4709646781665224e+00 0 0 0
1647 1 5.7955404319810402e+00 2.0234843793166557e+00 5.7151832222053116e+00 0 0 0
1049 1 6.6284724971823206e+00 2.6153033282471525e+00 5.6220406570527137e+00 0 0 0
2196 1 7.3858623437636606e+00 3.2449201478849927e+00 6.0101349024828279e+00 0 1 -1
1153 1 6.5541907812711777e+00 2.9755721451453216e+00 6.5537409897877534e+00 0 0 0
1171 1 8.1496355096926489e+00 3.7301611799707519e+00 5.4585430739109659e+00 0 0 0
1676 1 5.7367131455437352e+00 3.0202099460627054e+00 5.2536782825167911e+00 0 0 0
933 1 1.2650610123352366e+00 2.9884044240368191e+00 8.6371945539363253e+00 0 1 0
1188 1 7.2022395170062952e+00 4.6779649006875950e+00 8.7747107982059340e+00 0 0 0
227 1 3.3890193679900316e+00 3.7285926475150353e+00 8.9091081925722015e+00 0 0 0
2042 1 9.0177478261628039e+00 9.4287677923239244e-01 6.2845683256047300e+00 0 0 0
621 1 4.1481333550708763e+00 2.0900253536033142e-01 5.8499533554379930e+00 0 0 0
4122 2 5.6815270132787505e+00 1.4026628240519716e+00 5.1030534447794063e+00 0 0 0
3728 2 9.0954662144615597e+00 4.1419591519252315e+00 7.7509198289119130e+00 0 0 0
784 1 7.3304108819712939e+00 1.4375022974034599e+00 7.2894978694121484e+00 0 1 0
601 1 2.0549544675585087e+00 4.0159882404166227e+00 5.3587981896632355e+00 0 0 0
1093 1 3.1113932041122365e+00 3.9451170182632369e+00 5.5391164118673819e+00 0 0 0
3787 2 6.2863316250227257e+00 3.9315875946662153e+00 7.0392796009792082e+00 0 0 0
2088 1 4.2290148573428965e+00 3.8170710956551699e+00 5.3851581153580410e+00 0 0 0
127 1 3.9698784915551175e+00 3.5192725514112029e+00 6.4994401940600470e+00 0 0 0
3749 2 7.3830258567572180e+00 4.1088647544391357e+00 7.9671525605423739e+00 0 0 0
1085 1 5.3420419723353021e+00 4.0223780423201134e+00 5.4217808265674581e+00 0 0 0
3016 1 4.7839490496356971e+00 4.2574840084039103e+00 6.3205486622237474e+00 1 0 0
2546 1 8.9316361537079789e+00 4.6261207226180074e+00 7.0000511208886893e+00 0 0 -1
1030 1 6.4605931905485150e+00 3.7197512202770620e+00 5.5471929352999689e+00 0 0 0
3839 2 9.2633244226490810e+00 1.3712959433758160e-01 8.0368941461933083e+00 0 0 0
1115 1 6.8893082864872497e+00 4.1107133377108713e+00 6.4447332351129898e+00 0 0 0
1635 1 8.6114197236777077e+00 2.0853989268588005e+00 6.0409192689194562e+00 0 0 0
2161 1 8.9453615282249714e+00 3.5503512310099428e+00 7.0841351491311721e+00 0 0 0
1694 1 9.0188162728522379e+00 4.2834963373214237e+00 5.0538473765092844e+00 0 0 0
624 1 5.9248876910191246e+00 2.5024329329477744e+00 9.3447854555192560e+00 0 0 0
4297 2 2.7710381748434627e+00 3.3093155906037997e-01 8.0440437664576301e+00 1 1 1
3961 2 3.3354553051578990e+00 4.5557545119525784e+00 9.2431996508779886e+00 0 0 0
3989 2 1.0637761373633230e+01 3.3433962365138168e+00 8.7015068996309211e+00 0 0 -1