LAMMPS data file via write_data, version 12 Dec 2018, timestep = 436920

4320 atoms
2 atom types

0.0000000000000000e+00 1.9309999999999999e+01 xlo xhi
0.0000000000000000e+00 1.9309999999999999e+01 ylo yhi
0.0000000000000000e+00 9.6549999999999994e+00 zlo zhi
-6.5267799999999987e+00 0.0000000000000000e+00 0.0000000000000000e+00 xy xz yz

Masses

1 1
2 1

Atoms # atomic

1513 1 4.4846338352962771e+00 4.6279336297998590e+00 6.7503952861574679e-01 0 0 0
2159 1 7.5462477947966375e+00 4.1770405973976601e+00 4.0530532115102131e+00 0 0 0
976 1 3.4999628376746528e+00 4.2829218639829220e-01 4.4906861336511952e+00 0 0 0
818 1 1.1558651747558063e-01 4.6554963236815589e-01 3.1617951604670641e-01 1 1 0
1621 1 5.0293069639666204e+00 4.5564479823213224e+00 3.2515082416679637e+00 0 0 0
1870 1 5.9460285093436029e+00 1.5764222285031448e+00 4.6480935923454064e-01 1 1 1
4041 2 5.7451070146791672e+00 5.3728663431174672e-01 3.9599306320418939e+00 1 1 0
1493 1 8.3535688823349421e+00 1.6407709925018781e+00 3.8960640399718067e+00 0 0 0
1544 1 6.7663594925639821e+00 2.4351947062224677e+00 7.2522943370937298e-01 0 0 0
1122 1 7.7028636649403248e+00 1.7982248559906371e+00 4.6367122834888939e-02 0 0 0
3500 2 8.4443299393763471e+00 7.6057593610187524e-01 4.3015269235834470e+00 0 0 1
4116 2 1.5796518719303956e+00 2.9175995031485275e-01 1.1100506774875041e+00 1 0 -1
3688 2 1.7443825614710495e-01 3.8546725471364955e+00 4.7076093166628352e+00 1 1 0
1168 1 9.4898265049413393e+00 4.2932726947915900e-01 1.8411262052608568e+00 0 0 1
1127 1 1.1145610172612450e+00 1.8182192827491619e-01 4.0893783945416895e-01 0 0 1
1554 1 1.8597929785049587e+00 1.0386928786813363e+00 6.1584030864041472e-01 0 0 1
4042 2 7.7306181753867931e-01 1.3704464073568918e+00 4.1034198110639339e+00 1 1 0
95 1 2.6686765544157716e+00 4.5726153008861348e-01 1.2915181152623254e+00 0 0 0
1242 1 2.3897435071580331e+00 1.7582365313820405e+00 7.8504529783279348e-02 1 1 0
717 1 -3.4057817873388374e-01 3.7484795600441760e+00 8.3403762807913384e-01 0 0 1
870 1 2.6348581619032485e+00 1.7374894762058772e+00 1.1387577569329379e+00 1 1 1
1798 1 2.9249720116895035e+00 1.0007678082707987e+00 4.8446512512988388e-01 1 1 0
2689 1 6.6751539468524825e+00 2.2035157913492034e+00 2.7242128715041019e+00 0 0 0
906 1 6.0077220284994812e+00 2.8080667681829770e+00 2.1612287944892010e+00 1 1 0
1615 1 3.9480999231832627e+00 1.3602737297764480e+00 9.3133637078431519e-01 0 0 1
3750 2 -5.0741537514129353e-02 1.8410100833938128e+00 1.1285005397896535e+00 0 0 1
1357 1 3.6483091395236102e+00 4.7716873219114270e-01 1.9475116450442382e+00 1 1 1
767 1 4.9409617800764210e+00 1.4997182804205496e+00 1.0552260768582662e+00 1 1 0
586 1 1.4387753716248897e-02 3.7246559176053733e+00 2.5047958330189544e+00 0 0 0
3468 2 4.7789154868942703e+00 2.7470348239634030e+00 9.9552718480094937e-01 -1 0 1
2132 1 7.1687006025467248e+00 1.4265226150344992e+00 3.9238915236792264e+00 0 0 0
4208 2 -9.1633026332131629e-01 2.9996338742462720e+00 4.6529690827635246e+00 1 0 0
1671 1 7.0620382342418129e+00 4.1980072531933192e+00 7.9704695977271567e-01 0 0 1
3771 2 6.7057839314187540e+00 3.9126490610400433e+00 3.8106437471732382e+00 1 1 -1
2120 1 8.7248351655534506e+00 2.7131407198466517e+00 4.6184642023782754e+00 0 0 0
4063 2 6.6466988849143949e+00 6.1430035060934163e-01 2.9269829756837034e+00 1 1 1
2278 1 9.2131682516867865e+00 4.9227319855462726e-01 4.2234282603718387e-01 1 1 1
1165 1 1.6743489269165479e-01 2.0352879888068069e+00 3.7156162419078043e+00 0 0 0
2201 1 6.0570984310844169e+00 4.2364436462676887e+00 1.0403198980821651e+00 1 1 0
1359 1 4.7397091584419195e+00 7.8178728449696655e-01 2.4226179407426549e-01 1 1 1
3587 2 5.1998182977120218e+00 4.6721014647208685e+00 2.3958949381168573e+00 0 0 0
537 1 4.8142537895761377e+00 2.8684914199872713e+00 4.5197594251446684e+00 0 0 0
34 1 6.4019440685647810e-01 2.4970898306423130e+00 7.1262664951489363e-01 0 0 0
2340 1 6.7069944375409731e+00 8.7308575764346164e-01 8.8683563753672590e-02 1 1 1
968 1 1.7801238342965402e+00 2.4102944441029210e+00 6.9346986409798761e-01 0 0 1
3708 2 1.2102574040192857e+00 1.8503212259814912e+00 8.7965314439795250e-01 0 0 0
1166 1 1.2791044162569105e+00 3.0873836174295430e+00 1.3110520672705608e+00 0 0 1
3768 2 1.6292278739443218e+00 3.2698999603287202e+00 5.7220753681883074e-01 1 1 0
4250 2 -7.2246656230153983e-01 4.7022181998821839e+00 4.0688831949654416e+00 1 0 1
3757 2 3.4056193601150611e+00 2.0633646989963426e+00 9.3723956529906183e-01 0 0 1
1764 1 2.8368315029154969e+00 2.6647871047167522e+00 6.6897660713776486e-01 1 1 0
1617 1 3.9003510122477589e+00 2.7698994261520147e+00 5.6618817225561724e-01 0 0 1
1785 1 4.6862043325970877e+00 6.4773200391417851e-01 2.8877848700417221e+00 1 1 0
2850 1 7.6777397649009336e+00 2.2403333414204374e+00 2.2971338639652359e+00 1 1 0
2754 1 7.4436241595576993e+00 2.0688359755591193e-01 2.9868351062505742e+00 1 1 0
1505 1 1.3580158683826209e+00 4.0602511051344408e+00 3.6842759293424003e+00 0 0 0
1667 1 7.4915001119111437e+00 7.1413044127140513e-01 1.8249385872468245e+00 0 0 1
253 1 2.2260022694361459e-01 1.8463750218564598e-01 1.4180215192438994e+00 1 1 0
2076 1 5.5496895809729221e+00 2.2368270570023903e+00 3.0492106213974473e+00 0 0 1
1573 1 4.7268294326060118e+00 2.1037583802456457e+00 3.6850525472079640e+00 0 0 0
1071 1 3.9828962654912594e+00 2.0957034136474237e+00 4.4930234702613818e+00 0 0 -1
1897 1 5.7048495572077966e+00 3.4371661031542056e-01 2.0136921911119923e+00 1 1 1
1029 1 3.7343878529213823e+00 3.2170092172761555e-01 9.0614693051338080e-01 0 0 0
1358 1 1.8025466557764491e+00 1.0307747580241904e+00 1.6272814837698124e+00 1 1 1
1678 1 6.4937910158131569e+00 3.8229634638386791e+00 2.9467312014522626e+00 0 0 1
1489 1 7.6500816834428642e+00 2.2155666583861024e+00 3.3355474954882269e+00 0 0 0
860 1 3.9436810943693841e+00 3.1603318351429524e+00 3.9927472244995754e+00 1 1 1
1988 1 8.1869171228069835e+00 3.0501385877843274e+00 1.7535138585238856e+00 0 0 0
1538 1 6.2682868684327735e+00 1.3787411792747835e+00 3.2203201339836260e+00 0 0 0
1081 1 2.9785809659455502e+00 3.3174858101374696e+00 3.5664506274237233e+00 0 0 1
124 1 2.2144678475796091e+00 4.0108429466873554e+00 4.3343468929568676e+00 0 0 0
3764 2 5.2037302380451429e+00 1.0452138275041689e+00 1.7624656028116439e+00 1 1 -1
1019 1 2.3322731697481620e+00 3.5904864364059166e+00 8.9584068320227850e-01 0 0 0
1198 1 1.4659063876761189e+00 4.0925120462922893e+00 1.0882339323299051e+00 1 1 0
3627 2 2.2680039330179222e+00 4.4316252083258840e+00 7.9032930914445298e-01 0 0 1
814 1 3.0956014376214136e+00 2.5609591529990223e+00 4.2974937034031138e+00 1 1 0
1194 1 3.7355444821458730e+00 2.0984295496099219e+00 3.4627164417124954e+00 1 1 0
567 1 3.3846170876038038e+00 3.5825806543477863e+00 9.9320468426533481e-01 0 0 0
669 1 2.9228950662795885e+00 4.4538831627538613e+00 1.3306606142904345e+00 0 0 1
1062 1 2.4576186508911273e+00 2.3718766725607088e+00 3.3461421007594847e+00 0 0 0
1051 1 2.8913591266256349e+00 4.1061280704255134e+00 2.0501336258789987e-01 0 0 0
3884 2 2.4598071870139133e+00 3.1606422060710715e+00 4.3301108131624391e+00 0 0 1
1858 1 5.7127117557619869e+00 2.3166762136241554e+00 4.0988520235188126e+00 1 1 0
2164 1 1.9269645453692292e+00 3.1514340074771314e+00 3.6866371515016070e+00 0 0 1
503 1 5.5291553581204669e+00 3.3481689754787864e+00 5.5445486394966637e-01 0 0 0
1506 1 4.4956425451576880e+00 3.5574758529797483e+00 8.9295903765215046e-01 0 0 0
1564 1 5.3721097240856732e+00 4.3318267079630610e+00 1.6332588153987737e-01 0 0 1
1572 1 5.0494869303728969e+00 4.3189246892283313e+00 1.5259200821554333e+00 0 0 1
1818 1 3.2303068992978683e+00 2.8536979207786178e-01 2.8797819822294599e+00 1 1 1
3799 2 -1.3283194268651484e+00 4.0732166047887945e+00 5.2671546403646208e-01 1 1 0
1007 1 2.0740476316963861e+00 2.3250628489417431e+00 4.5304374083131558e+00 0 0 0
1470 1 6.4029967899710449e+00 3.2847110659809329e+00 1.3217819338697849e+00 0 0 0
1167 1 9.9413804251367299e-01 2.2823903895135200e+00 4.3335944359939749e+00 0 0 0
1485 1 7.3418974659531768e+00 1.2511630669547251e+00 2.8210936392099546e+00 0 0 0
4119 2 1.6978732895212354e+00 2.2708909139309483e+00 3.7657458678820981e+00 0 0 0
3719 2 1.2536005886875643e+00 3.1045361121307433e+00 4.2389467874943918e+00 0 0 -1
572 1 9.5566844648131777e-01 2.6397203676918592e+00 3.3698214569611884e+00 0 0 0
2250 1 6.6807798018506723e+00 2.3700403957629481e+00 3.7565508710499058e+00 1 1 0
2145 1 7.1726500010643637e+00 3.2505892034853221e+00 3.3806132895771825e+00 0 0 0
1076 1 8.5057214146879954e+00 2.9099555655953955e+00 5.1381943220667481e-01 0 0 0
1689 1 7.0757582210452412e+00 3.2985935808683746e+00 4.4192062089646935e+00 0 0 0
159 1 1.1345983447927301e+00 3.4148141716528957e-01 2.0357474341213941e+00 0 0 0
1042 1 -7.6452859545742391e-01 4.6138464388931553e+00 2.8223271302990111e-01 0 0 0
2642 1 8.8067302554678832e+00 2.4176369726132778e+00 2.3973570289247244e+00 0 0 0
1134 1 9.0769308558069195e-01 1.3437751008745296e+00 2.2051319260416711e+00 0 0 1
1040 1 1.5707626460445276e+00 2.0429645036935571e+00 1.6483476571994675e+00 0 0 0
2513 1 6.9180168261686124e+00 1.4455738506026585e+00 1.0321014772126484e+00 0 0 0
1783 1 2.7658225007810273e+00 1.0188368236059413e+00 2.1705329185847262e+00 1 1 0
3878 2 3.2740928309470121e+00 1.0123291218259691e+00 1.3900776995377688e+00 0 0 1
631 1 1.9453989186781395e+00 1.5689318723714221e+00 2.6503253554793451e+00 0 0 0
3756 2 4.5682071826287665e+00 6.5291532832841526e-01 1.0467846304487591e+00 0 0 1
3565 2 5.7722432900672302e+00 4.6418857522233941e+00 4.7315972266190069e+00 0 0 0
575 1 2.8821593308704023e+00 1.3144732964370540e+00 3.1518946655543734e+00 0 0 0
722 1 3.5270920536878920e+00 1.6681057009973199e+00 1.8503492519799052e+00 1 1 0
1147 1 3.8081573226585554e+00 1.2831876866082801e+00 2.8168587583996945e+00 0 0 1
1351 1 4.4353369101830342e+00 1.2272610914464239e+00 2.0060763482266388e+00 1 1 0
3775 2 4.6580623605025879e+00 1.5300764456817764e+00 2.9666032167000838e+00 1 1 0
610 1 2.4065723450555532e-01 1.5893653088787152e+00 4.6966317412132099e+00 0 0 0
1472 1 6.7510956187183915e+00 4.2511170384116248e+00 1.9213894105901641e+00 0 0 0
3503 2 5.1692502830489788e+00 2.8040775650089285e+00 3.6522729169122683e+00 -1 0 2
558 1 -5.7008978065185367e-01 2.1505676964956186e+00 1.8450758000243377e+00 0 0 0
1065 1 5.0351823938872575e-01 2.1974159730685456e+00 1.7265856515854947e+00 0 0 0
1711 1 6.5261088734098918e+00 3.3730607069113439e+00 3.0471414110652684e-01 1 1 0
1622 1 5.8641466445420463e+00 4.3380719348065675e+00 3.7885047917037733e+00 0 0 0
1855 1 5.4162715440758751e+00 5.6502780274658215e-01 9.9880753921688703e-01 1 1 1
1471 1 7.5484820301629130e+00 4.7031144143369202e-01 4.3078578763054107e+00 0 0 0
1965 1 6.7354289771731128e+00 2.2785432459989341e+00 1.7058235506616417e+00 0 0 0
1455 1 5.7523875762696983e+00 4.0856671718566695e-01 3.0942644747876042e+00 0 0 0
636 1 -9.0464938349861923e-01 4.1420818273738771e+00 2.3016950681015289e+00 0 0 1
1519 1 6.5734066910606446e+00 1.1514628482718783e+00 2.1905822151156364e+00 0 0 0
2646 1 8.4384954794530618e+00 1.4941562623917568e+00 2.8345545475399123e+00 0 0 1
2941 1 8.5608757908521560e-01 3.0701201831848599e+00 2.3931525039299961e+00 1 0 0
3608 2 9.1477409786867259e-01 2.1816850590693648e+00 2.6008538805232226e+00 0 0 0
574 1 1.0702810078301275e+00 4.0924333620129243e+00 4.6681243010260873e+00 0 0 0
555 1 9.0432191975111198e-01 8.7469056740662821e-01 1.1638649619597474e+00 0 0 0
505 1 2.2267504082640093e+00 2.7811170343419267e+00 1.5378985658184083e+00 0 0 0
663 1 1.7266158323931644e+00 2.4985517599969431e+00 2.7081134886019598e+00 0 0 0
3686 2 1.6967367508930939e+00 3.2011108128369896e+00 2.0927231158723472e+00 1 1 0
1446 1 2.5162442452145641e+00 3.1857511926957094e+00 2.6147918171548366e+00 0 0 0
568 1 2.6977415084838485e+00 2.0964655380869970e+00 2.2930984361588025e+00 0 0 0
3703 2 2.7470395773724698e+00 3.3762374404999238e+00 1.7090715490723156e+00 0 0 0
3533 2 3.4601921169473857e+00 2.0674445183826755e+00 2.6538593697077961e+00 1 1 0
1462 1 3.2952873779843936e+00 2.7219818067754118e+00 1.6832195132313761e+00 0 0 0
1511 1 3.5018539219640052e+00 2.9259543313620342e+00 2.7668984070632834e+00 0 0 0
1561 1 4.1630165994533179e+00 3.2126861854578244e+00 1.8867514557699692e+00 0 0 0
2197 1 4.3324610988391541e+00 2.2465375403397623e+00 2.5043366662329944e+00 1 1 0
566 1 4.2805560431366994e+00 2.2601673413855923e+00 1.4540609999292688e+00 0 0 0
1437 1 5.1793986345168790e+00 3.2344264598521817e+00 1.5842034800949818e+00 0 0 0
2101 1 5.2306971482576996e+00 2.1069513320810342e+00 1.8979590106324737e+00 0 0 1
3946 2 5.0263567224332411e+00 2.8404626499000361e+00 2.3699497233222706e+00 1 1 0
1721 1 4.4619365134383333e+00 2.9889671653638685e+00 3.1067582250381154e+00 1 1 0
2421 1 5.5251589701491257e+00 3.2659472015447646e+00 2.9868445073831849e+00 0 0 0
2098 1 3.9104054779394994e+00 3.8655321578502919e+00 1.5207447015021031e-01 0 0 1
1103 1 6.0619179593583334e+00 1.3792669520046290e+00 4.3223863627598069e+00 0 0 0
599 1 6.5100025360671854e-01 7.1491886954454009e-01 3.0207448311049410e+00 0 0 0
991 1 5.4117084979369530e+00 1.3002287743712022e+00 2.6142168263280823e+00 0 0 0
3635 2 6.8709997542791790e+00 1.0033051070574102e+00 4.5974755197682065e+00 0 0 1
1380 1 4.7260253628573903e+00 2.2293980714981285e-01 1.7577408267050536e+00 1 1 1
1190 1 3.4228189129690678e-01 1.4348097363832297e+00 5.5154275592109347e-01 0 0 1
2251 1 9.3492721450765579e+00 3.7010236122073720e-01 4.7000786176170326e+00 1 1 0
2176 1 6.6361041187642194e+00 5.4696960128865624e-01 3.7999437441499015e+00 1 1 0
878 1 5.1643898545935780e+00 8.0101216235930062e-01 4.5804627549831043e+00 1 1 0
2468 1 7.4382732657379851e+00 3.1942495412190270e+00 1.1131679324412473e+00 0 0 0
1682 1 4.9451897705687689e+00 3.6660764385773388e+00 3.8079202029593953e+00 0 0 0
3865 2 3.5259265566179945e+00 4.3799112214683600e+00 7.4509770095065464e-01 0 0 0
580 1 4.1758588845863827e+00 1.2238056093644669e+00 3.8069608513694582e+00 0 0 0
1950 1 5.2346077071094790e+00 1.2077442652791894e+00 3.6467473792198191e+00 0 0 0
1550 1 6.1479802788869389e+00 4.6979223818570354e-01 4.7495926240443209e+00 0 0 0
1696 1 4.8798563080779482e+00 4.5635326219749173e+00 4.3128569722181798e+00 0 0 0
1160 1 5.9401533336821783e+00 1.4493696398734848e+00 1.4986084116868128e+00 0 0 0
1440 1 1.6300000700594444e+00 3.5984739384770186e+00 2.8286142697357026e+00 0 0 0
664 1 2.1747787300906212e+00 3.9298378421362519e+00 1.9146978083325881e+00 0 0 0
2174 1 2.1385102042059465e+00 6.8562115577514279e-02 3.5147654547114537e-01 1 1 0
3121 1 6.4741093697542409e+00 4.1510410663071564e+00 4.6159319903899991e+00 0 0 0
994 1 2.5227829656522935e+00 4.1425420932539190e+00 3.0790662936906310e+00 0 0 0
1428 1 4.0509296349910535e+00 4.2422311384197009e+00 1.6207788261119316e+00 0 0 0
30 1 3.2117557390553477e+00 4.3134158455943323e+00 3.8963058770306773e+00 0 0 0
534 1 3.9090826957328031e+00 3.8888163906411974e+00 3.0742885679579359e+00 0 0 0
1271 1 3.2272337921637124e+00 3.9085302139756677e+00 2.2691277065169104e+00 1 1 0
952 1 5.7375843638024184e+00 2.4654273101128745e+00 1.0292088699019581e+00 0 0 0
3838 2 4.0795505497782285e+00 4.1290907130021148e+00 3.9860680104528323e+00 0 0 0
2946 1 6.4463262299315733e+00 5.2218627598095635e-01 1.1514018021285319e+00 0 0 0
1072 1 5.8455226770777351e+00 3.9076112474215221e+00 2.0732629433558545e+00 0 0 0
1535 1 4.8037715264895056e+00 3.8984410068686195e+00 2.4375410562492488e+00 0 0 0
3964 2 5.7125676834527290e+00 4.1100154279409873e+00 2.9853279876193759e+00 1 1 0
1979 1 7.1256649469750108e+00 3.1927290881623982e+00 2.0802216836635927e+00 0 0 0
3602 2 4.3936295262106357e+00 3.8359841930935040e-01 4.3015703462487860e+00 0 0 0
2360 1 3.1580968548721109e+00 1.4445571042786836e+00 4.0864698846977010e+00 1 1 0
1425 1 6.0727823776403778e+00 3.2808742633880810e+00 3.8845408268058841e+00 1 1 0
3856 2 3.4375717913825143e+00 7.5203842785718134e-01 3.6306292674474534e+00 0 0 0
386 1 2.5105991302219230e+00 6.2545636447662989e-01 4.1321649568742496e+00 1 1 0
3460 2 6.2967728010353268e+00 2.9004038710694724e+00 3.1094130160186442e+00 -1 0 0
4242 2 7.2654395354567916e+00 1.6185528781444989e+00 1.7817899502138046e+00 0 0 1
235 1 2.0273516515863177e+00 1.4963062646005700e+00 3.8709843274806226e+00 0 0 0
481 1 1.1098153237443336e+00 1.6222359110935642e+00 3.3071658683638043e+00 0 0 0
1054 1 1.2448141834672706e+00 7.2636701076290899e-01 3.9262938245521419e+00 0 0 0
3676 2 5.9549262461826125e+00 1.8617708025714959e+00 2.3303722941429212e+00 1 1 1
751 1 2.1918585726289463e+00 5.2086153724388151e-01 3.1791386279866991e+00 1 1 0
4264 2 1.4937070714609864e+00 7.9271365802718197e-01 2.6383070502856296e+00 1 0 1
3707 2 4.2167846167013270e+00 1.6324550773773698e+00 1.4598353081670271e-01 0 0 0
652 1 1.1774809722960494e-01 9.0844158638711303e-01 3.8769703907773483e+00 0 0 0
4238 2 -3.1500869900562800e-01 3.9378306044001810e+00 1.6957112473569449e+00 1 0 0
3588 2 -9.8148585232962215e-02 3.8578321297243860e+00 3.4142683978595758e+00 0 0 0
508 1 3.3663360562052445e+00 4.8082907136461408e+00 2.9084163415529742e+00 0 0 0
1991 1 8.4197786011577449e+00 4.8505970469901444e-01 2.3969661364611214e+00 0 0 0
2056 1 7.9758925757392323e+00 1.1674477976796169e+00 8.9820282656455708e-01 0 0 1
3619 2 7.6439829356834976e-01 3.4866315564903512e+00 3.1321581943008949e+00 0 0 1
3097 1 6.7240593795233190e+00 7.7868936129421848e-02 2.2144362407904650e+00 0 0 1
2631 1 8.0410617672518381e+00 3.1063549865793516e+00 2.8786291103735953e+00 0 0 0
2330 1 7.3983144520291502e+00 3.5810940710047745e-01 7.8362008523762017e-01 1 1 1
550 1 1.6261662482891750e+00 4.6154918840527088e+00 2.7219311449229244e+00 0 0 0
529 1 -5.0350510153939254e-01 4.5265662953962833e+00 3.1683885555309899e+00 0 0 0
622 1 -4.5437999577959892e-01 2.6052851564056225e+00 8.8318667037926735e-01 0 0 1
1022 1 5.6336273825182293e-01 4.4220149147167307e+00 3.0101080005223855e+00 0 0 -1
889 1 5.0030663052512416e+00 1.8093619077059724e+00 4.7099294151303157e+00 1 1 0
2677 1 8.5934865329143033e+00 3.9617157593991081e-01 1.2537880254752103e+00 0 0 1
4263 2 3.4797876308108071e+00 4.8067378966752052e+00 2.0035324214516383e+00 1 0 0
656 1 6.7031703418777289e-01 3.5757821884935415e+00 4.9902664710757733e-01 0 0 1
964 1 7.7823375858532540e+00 4.0449611154407057e+00 1.6518107236957065e+00 0 0 0
1018 1 -6.0747950273021312e-01 4.6870096943516542e+00 1.2938187862575354e+00 0 0 0
1512 1 2.1501082112384653e+00 1.4668827933421844e-01 2.2060264866397747e+00 0 0 0
3127 1 5.5950193857000130e-01 3.5067583212157696e+00 3.9775934880149588e+00 1 0 0
177 1 -9.1934887967670442e-01 3.5230861365526223e+00 3.1888302276701834e+00 0 0 0
1117 1 1.8286868395824294e+00 4.0975087515708752e+00 6.6728746976580960e-02 0 0 1
668 1 3.0195103234113940e-01 3.3492513509884669e+00 1.5497454324550666e+00 0 0 0
1000 1 -1.7429105854985361e-02 1.2772969879289839e+00 1.7475273870688288e+00 0 0 0
1441 1 7.5347566149432490e+00 2.9243820500644255e+00 1.0288179841515917e-01 0 0 0
1073 1 3.9982250141313069e+00 1.2157007837860749e-01 3.5376463592343730e+00 0 0 0
1066 1 8.0605123675698529e+00 3.8632792310147601e+00 5.8023028315230119e-01 0 0 0
962 1 8.1586345929978377e-02 4.6997148007461185e+00 2.0764638404708946e+00 0 0 0
232 1 -5.2955054046481709e-01 3.6257058841728318e+00 4.1358208372035437e+00 0 0 0
1376 1 1.1386948799296315e-01 1.9041242018016875e+00 2.6816376546398013e+00 1 1 0
1651 1 5.0103206161288014e+00 5.6622856962693723e-02 3.8489031008156083e+00 0 0 1
1039 1 1.0130863654571713e+00 4.0616416540770865e+00 2.0159998626415474e+00 0 0 0
2081 1 8.1416817968689816e+00 3.2975354796426473e+00 3.8520719370646597e+00 0 0 0
4281 2 8.5134126557571079e+00 1.8910079152094352e+00 8.2176972078573240e-01 1 1 0
1098 1 5.9030245131085550e+00 2.5716201836657961e+00 9.2653273573427720e-03 0 0 1
802 1 2.2821931533550055e-02 2.7557200680945320e+00 4.4506642846025928e+00 1 1 0
2737 1 8.3160267862819985e+00 6.4729770437694578e-01 3.4253496261430403e+00 1 1 0
2444 1 8.6382105925107151e+00 1.3814230957141136e+00 9.0112581443133805e-02 0 0 0
1457 1 6.7977561672534401e+00 4.7232147905210011e+00 3.6207734777736880e+00 0 0 0
21 1 -3.5713225128894283e-01 2.0239775854624491e+00 1.8341663493166030e-02 0 0 0
1975 1 9.1128909061971246e+00 1.3333464153004206e+00 1.0428477605964417e+00 0 0 0
1499 1 4.9867121420194298e+00 2.2364594190067875e+00 2.9982661060870863e-01 0 0 1
3040 1 8.5885392770227087e-01 4.5612190365744514e+00 2.0172388866528343e-01 1 0 0
2996 1 4.1804170282953201e-01 4.4431882637508462e+00 1.1322158844610932e+00 1 0 0
2538 1 7.7138436419934591e+00 2.2279742580773267e+00 1.2511998066393542e+00 0 0 0
987 1 3.4086814603190634e+00 1.9440747821142377e+00 6.8126596134900269e-02 0 0 0
3128 1 2.7019780233803026e-02 2.9844879922349037e+00 3.2430705394284338e+00 1 0 0
548 1 3.2315188780089601e+00 3.6297732221719916e+00 4.6510534141725497e+00 0 0 0
1913 1 1.3704701644649284e+00 1.4436212432131239e+00 4.7296129361508026e+00 1 1 0
559 1 2.7271431568028559e-01 4.4829176227733871e+00 4.1001951568692494e+00 0 0 0
615 1 -6.8839701045088475e-01 3.2107803798767542e+00 1.8700265138986594e+00 0 0 1
2108 1 4.3018931878176101e+00 3.7259885964613817e+00 4.7263888975815185e+00 0 0 0
3606 2 -4.1614231440739835e-02 2.7643971757218058e+00 2.3208948238127518e+00 0 0 0
3918 2 1.0005819635866451e+00 9.6252737422625811e-01 6.5141322327154416e-02 1 1 0
2854 1 7.6827985838346944e+00 2.4734161958745164e+00 4.3775522304353158e+00 1 1 0
4228 2 2.8799248895710405e-01 5.3108933165323924e-01 2.1952118663582119e+00 1 0 0
288 1 -8.3109215599056852e-01 2.6669663516248265e+00 3.8353208089020212e+00 1 1 0
2386 1 8.3215103331346878e+00 1.3693599261676284e+00 1.8425217388490793e+00 1 1 1
2063 1 7.4758018331470382e+00 4.1445869494987502e+00 2.7944469743110738e+00 0 0 0
628 1 3.8688308897226080e+00 4.8015283680931011e+00 4.7159679898737377e+00 0 0 0
2037 1 4.2659984722174809e+00 4.8000884692013939e+00 2.4716066187866139e+00 0 0 0
1594 1 9.2970839100757452e+00 1.0479165867289852e+00 3.8480602353333833e+00 0 0 0
263 1 -1.5244347308037329e+00 4.8049135423880598e+00 2.8833466680796631e+00 1 1 -1
1563 1 6.0051530271495617e+00 8.4617670047510113e-02 3.0035635982062925e-01 0 0 1
3599 2 -9.9063320117749298e-01 3.1999539491350451e+00 8.2957611522181707e-01 0 0 0
83 1 -8.3385922504217058e-01 2.5466848067292465e+00 2.7914282694333394e+00 0 0 0
975 1 6.6476643018665627e+00 2.1773817628305387e+00 4.7739242342689527e+00 0 0 0
1880 1 6.1650559134262828e+00 4.7562099088757837e+00 2.7418443463981572e+00 0 0 0
970 1 2.8022901482138414e+00 4.7545637495353068e+00 4.8273442294846651e+00 0 0 0
3844 2 -1.3653800362798580e+00 4.6557988311096397e+00 1.7488797916383247e+00 0 0 0
779 1 -1.3975418677020695e+00 4.2588759987429468e+00 3.8056641318697464e+00 0 0 0
1500 1 9.3230389806146263e+00 8.6663771631225739e-01 2.8012039498563461e+00 0 0 0
1491 1 6.4945865246685286e-01 6.0961989640997849e-01 4.8179350125991958e+00 0 0 -1
3391 1 9.0163412880755622e+00 5.7186403817367193e-01 6.6463213492478106e+00 1 1 0
1984 1 8.1914963143466011e+00 2.3783101909748603e+00 5.4212365266773341e+00 0 0 0
186 1 2.5507236334282481e+00 4.3107756406730973e+00 8.2451475886942518e+00 0 0 0
1634 1 6.4371987000808959e+00 4.0096499691884766e+00 7.6678363465585679e+00 0 0 0
1504 1 4.7280735957040232e+00 4.4815356137332287e+00 5.3411311109476260e+00 0 0 0
1557 1 7.0906664611480297e+00 4.8083986779781878e+00 8.0608571385491405e+00 0 0 0
2039 1 7.1047166613255746e+00 4.6939908066129332e-01 5.3060462848242773e+00 0 0 -1
695 1 -4.7015873303410233e-01 1.4490928909449883e+00 5.5834151070691673e+00 0 0 0
3364 1 6.1788757260717153e+00 2.8625698844364872e-01 5.9003293734579012e+00 1 1 0
1184 1 4.2515346149951370e+00 4.5630813830555876e+00 6.2935759488628671e+00 0 0 0
2473 1 8.1887511511870716e+00 9.8798837226402569e-01 8.4394447951188507e+00 0 0 -1
2621 1 8.5082270555139097e+00 2.7918713027525621e+00 7.3114643962615027e+00 0 0 0
538 1 3.3600795313277185e+00 9.6392617109609036e-01 6.5447448855072814e+00 0 0 -1
4177 2 2.2595512239972875e+00 2.1041374016521184e+00 5.3651405884916237e+00 1 1 0
1001 1 4.8735801822456448e+00 3.2446677698739270e+00 9.4013039556221099e+00 0 0 -1
913 1 6.4393182991804687e-02 1.0925958668014430e+00 6.5288367801356681e+00 1 1 0
1681 1 7.2493581621819576e+00 2.7529319650149833e+00 5.4615431054393673e+00 0 0 0
3924 2 4.8224987851651537e+00 6.6840090131202790e-01 7.6510335390441453e+00 1 1 -2
1434 1 1.7427431288448030e+00 1.0679934940953599e-01 8.3592061391292365e+00 0 0 0
3752 2 8.7318885057473850e-01 1.9503525268221569e+00 5.1790745486076242e+00 0 0 0
526 1 5.2100979076132736e-01 1.2984296170005614e+00 5.6754299001984307e+00 0 0 -1
1080 1 1.6388185726945075e+00 1.5501198204213609e+00 5.7119759790813678e+00 0 0 0
3881 2 7.6753064322633087e+00 3.2591851651294750e+00 8.9027075458449225e+00 0 0 0
323 1 1.8557051496195909e-02 2.9752989081970287e+00 9.5968241778542609e+00 1 1 -1
4295 2 2.6054436112350476e-01 6.9736281538209954e-01 8.3016673170399233e+00 2 1 0
1498 1 1.1523120542144281e+00 9.5787431721827843e-01 6.4649361801105476e+00 0 0 0
1683 1 2.5304182804319977e+00 1.4417208776254440e+00 6.0887203554265223e+00 0 0 0
1199 1 3.1315375282292717e+00 1.8780672293868101e+00 5.0941853938957911e+00 1 1 0
4081 2 2.5041312726772924e+00 3.9651110174264259e+00 9.1139302731015963e+00 0 0 -1
3793 2 6.3521193586030487e+00 2.8240390944890098e-01 9.2090692703664114e+00 1 1 -1
1349 1 4.1500874213244234e+00 9.4776960437045532e-01 5.8333962136418522e+00 1 1 0
4122 2 4.8483864702035495e+00 1.1747382143751937e+00 5.3303946953144452e+00 0 0 0
971 1 7.4140092647991764e+00 3.9390406375222082e+00 9.4244681971591309e+00 0 0 -1
1654 1 5.0760160060246733e+00 1.6310107610404034e+00 6.1679462536543639e+00 0 0 0
1907 1 5.0750347576121584e+00 6.3464432686377947e-01 6.0902527696317295e+00 1 1 0
2102 1 8.3422476670112236e+00 2.2148239867270780e-01 7.7359150079397754e+00 0 0 0
4175 2 7.6119519506559268e+00 1.7210217876857261e+00 7.9424754859980711e+00 1 1 0
626 1 5.7628977819510407e-01 2.5901583786023243e+00 7.1463811386807956e+00 0 0 0
1955 1 6.3491741693750612e+00 4.0239768899131665e+00 6.6195606079813167e+00 0 0 0
933 1 -5.1217822138442182e-01 3.4783470199112196e+00 8.6940555719896029e+00 1 1 0
3335 1 7.9368717033708167e+00 2.0783324016840296e-01 5.9317648141637580e+00 1 1 0
1407 1 7.5717396892368019e+00 2.4312147440419913e+00 8.7819113350895179e+00 1 1 0
2364 1 8.6392070576628583e+00 2.3059127077331101e+00 6.3698709501566775e+00 1 1 0
1142 1 4.5062170903873362e+00 4.2758461739369924e+00 9.0570915305747146e+00 0 0 0
2753 1 7.4031457666196143e+00 8.2828521902441365e-01 7.7200876643747058e+00 1 1 0
1212 1 7.7252769015938183e+00 7.1422661804506460e-01 9.4237095319320883e+00 1 1 -1
2128 1 8.0090245856187057e+00 3.3904302594340430e+00 5.0034346026127503e+00 0 0 0
1095 1 5.6886188412998555e+00 1.9859706016231478e+00 7.8856835340539506e+00 0 0 0
4220 2 5.9903630128109331e+00 1.3872026095261600e+00 7.2988180630705095e+00 0 0 -1
1180 1 1.7918492632272276e-01 2.3616540044053793e+00 5.5211299895075427e+00 0 0 0
3518 2 1.6255889951609037e+00 1.9456222418875227e-01 6.5777185813868426e+00 1 1 0
1114 1 1.5106594834011191e+00 2.5305682433069863e+00 5.3851807229579007e+00 0 0 0
1187 1 2.2796482025975311e+00 2.5158946002768170e+00 6.1768223598757954e+00 0 0 0
659 1 1.2799935767974666e+00 3.2771956576292496e+00 6.0680029204820896e+00 0 0 0
3713 2 2.0429586391926584e+00 3.1654287516795945e+00 5.6733691606994361e+00 0 0 0
698 1 8.7191634076528379e-01 2.1581968219042946e+00 6.2157021776373407e+00 0 0 0
1177 1 2.6921136557275727e+00 2.8608301725735150e+00 5.2501877827818353e+00 0 0 0
1853 1 3.3602212088497936e+00 2.1152298790473867e+00 6.1426178122964101e+00 1 1 1
3123 1 3.2946660463003576e+00 3.1443631866322117e+00 6.1525894488447914e+00 1 0 0
3577 2 4.0759240332368574e+00 2.6723016020816561e+00 6.1217095676902611e+00 0 0 -1
1361 1 6.5981285332684267e+00 2.2380590441293200e+00 8.3691805845520602e+00 1 1 0
1647 1 4.2115313771347109e+00 1.9714786976960170e+00 5.5868855949504344e+00 0 0 0
1049 1 5.1092484620201999e+00 2.5089983236582305e+00 5.4637453726882459e+00 0 0 0
2196 1 5.6253327602555343e+00 3.2568548201079421e+00 6.0169013088283041e+00 1 1 -1
1153 1 4.8682601769131884e+00 2.6109296786632132e+00 6.4803229228658612e+00 0 0 0
1171 1 6.5028385006907943e+00 3.5179156834904615e+00 5.4383305139891682e+00 0 0 0
1676 1 3.7714371657588561e+00 2.9030020391301083e+00 5.2552100260928079e+00 0 0 0
2161 1 7.2562006244340829e+00 3.4532563163712156e+00 7.0806520994942872e+00 0 0 0
1099 1 5.4612620575022319e-01 4.6675373707855270e+00 6.6844533401610322e+00 0 0 0
227 1 1.6540615294315475e+00 3.8623959895400812e+00 8.7262485415751687e+00 0 0 0
2042 1 7.0902889747868310e+00 7.9375647755433054e-01 6.2969563212354585e+00 0 0 0
621 1 1.9610481304485150e+00 4.9349544577038545e-01 5.8329753524640431e+00 0 0 0
1021 1 5.8137535943139600e+00 3.6086350825045943e+00 9.1652506503641931e+00 0 0 0
1640 1 4.9931363924170977e+00 2.3770464193877494e+00 8.6190066588996270e+00 0 0 0
784 1 5.1657551025320716e+00 1.1687630247995611e+00 7.0637157005702607e+00 1 1 0
2060 1 7.6630708675143371e+00 2.6464145394745504e+00 6.6164770366321077e+00 0 0 0
1093 1 1.6353231016561189e+00 4.1741657909313448e+00 5.5434322602358730e+00 0 0 0
3787 2 4.5231716221432716e+00 4.2040054480292506e+00 7.0620782416663621e+00 0 0 0
2088 1 2.6642039184847741e+00 3.8984792083036206e+00 5.4389444024084650e+00 0 0 0
127 1 2.2752762356450420e+00 3.5758776597557551e+00 6.3772023225707271e+00 0 0 0
3749 2 5.8307667356438806e+00 3.9239827536055469e+00 8.3091579448376098e+00 0 0 0
1085 1 3.7981465526495759e+00 3.9861119222715669e+00 5.5867625823404756e+00 0 0 0
3016 1 3.0721426021643587e+00 4.2665842825653524e+00 6.3157245211553015e+00 1 0 0
1078 1 4.1399244055471076e+00 2.5730224889654454e+00 8.0711086899557234e+00 0 0 0
1030 1 4.6843137737514509e+00 3.4122061352728688e+00 5.7017796505868397e+00 0 0 0
1107 1 1.6751026630584940e+00 8.1663463189977514e-01 9.2448377275994247e+00 0 0 0