LAMMPS data file via write_data, version 12 Dec 2018, timestep = 372240

4320 atoms
2 atom types

0.0000000000000000e+00 1.9309999999999999e+01 xlo xhi
0.0000000000000000e+00 1.9309999999999999e+01 ylo yhi
0.0000000000000000e+00 9.6549999999999994e+00 zlo zhi
-8.4191600000000015e+00 0.0000000000000000e+00 0.0000000000000000e+00 xy xz yz

Masses

1 1
2 1

Atoms # atomic

21 1 7.0907194351624070e-02 1.7792027855688988e+00 1.3819149422505275e-01 0 0 0
1499 1 5.5476076513940988e+00 2.1296072454595687e+00 2.4049500439346841e-01 0 0 1
987 1 3.9439243147270471e+00 1.8570431681958608e+00 1.4009085460457890e-01 0 0 0
50 1 2.5127773152006800e+00 4.7032842904358834e+00 1.4024551434829495e+00 0 0 0
508 1 3.8498941286989323e+00 4.6041640741285157e+00 2.9186474819183510e+00 0 0 0
889 1 5.7249111822627219e+00 1.7229011856481795e+00 4.6403371508248750e+00 1 1 0
1127 1 1.4743191166899510e+00 3.0020739668263374e-01 5.7229487036523563e-01 0 0 1
1554 1 2.0123987480648666e+00 1.2231382164869611e+00 6.4492692500813653e-01 0 0 1
4042 2 1.1901325697439915e+00 1.0611751190923802e+00 4.0829325002404051e+00 1 1 0
95 1 2.8296981555276717e+00 7.8022088430595737e-01 1.1598508153155700e+00 0 0 0
717 1 1.6774205054463409e-01 3.5943005536351569e+00 8.3482308422381502e-01 0 0 1
870 1 3.3276765972183697e+00 1.6281497515743517e+00 1.3484708740806546e+00 1 1 1
1798 1 3.6476274014929948e+00 8.9861860998457377e-01 5.3265086882789658e-01 1 1 0
1615 1 4.5591743891503533e+00 1.2254334573727919e+00 9.9669916009848414e-01 0 0 1
3750 2 1.4397884644702597e-01 1.5844689160264172e+00 1.0041453873397406e+00 0 0 1
1357 1 4.3502630395570518e+00 4.3988598648389554e-01 1.8169114570862730e+00 1 1 1
767 1 5.7105023927496079e+00 1.4862108026743639e+00 1.0213758588221666e+00 1 1 0
586 1 4.6216052736931212e-01 3.3929624408836414e+00 2.5496273712069883e+00 0 0 0
3707 2 4.7973457037225975e+00 1.6402863008225270e+00 2.2184596564768941e-01 0 0 0
896 1 -1.1788414579731152e+00 4.7878282404289170e+00 1.1049587303277211e+00 1 1 1
1165 1 6.7872225820399623e-01 1.7207365323520294e+00 3.8480813921088766e+00 0 0 0
1359 1 5.2516276053922626e+00 8.2337685036688169e-01 2.4416056278725104e-01 1 1 1
992 1 -3.5499689048839156e-02 8.0031597071157279e-01 2.7527533005891223e+00 0 0 0
34 1 1.1771580915020199e+00 2.4044311144597219e+00 6.3367777655260127e-01 0 0 0
581 1 -5.0080574194419714e-01 3.4337397689710905e+00 4.2146589993055261e-02 0 0 0
968 1 2.2655046182865717e+00 2.2694529312500240e+00 6.0432858809649470e-01 0 0 1
3708 2 1.6313474986418668e+00 1.8335151417137860e+00 1.1054287112273211e+00 0 0 0
1166 1 1.7325490124512140e+00 2.5529511034222350e+00 1.5634690082723288e+00 0 0 1
3768 2 2.1377090154971858e+00 3.1509065133433869e+00 7.2902311954452859e-01 1 1 0
1242 1 2.8729189433899842e+00 1.5174512837474787e+00 2.1291766488313921e-01 1 1 0
3757 2 4.1285704446272229e+00 1.9517072304443339e+00 1.0394470160566802e+00 0 0 1
1764 1 3.3606505431338380e+00 2.4536600742181300e+00 7.7829619623106694e-01 1 1 0
1617 1 4.6273701354056058e+00 2.5477713568697302e+00 5.7893584687311817e-01 0 0 1
1785 1 5.4160580855654805e+00 5.3845481422177210e-01 2.8242987683456766e+00 1 1 0
4116 2 2.0141900973572495e+00 5.3329477972910222e-01 1.2422829256048245e+00 1 0 -1
1505 1 2.0361798160826776e+00 3.9135944291818925e+00 3.6684638849777942e+00 0 0 0
818 1 4.7375825513439224e-01 2.5583873513584299e-01 1.7778601664504790e-01 1 1 0
1573 1 5.3872596757854279e+00 2.0412005478363224e+00 3.5829795520815311e+00 0 0 0
1071 1 4.5907998447114222e+00 1.9820858489495685e+00 4.5762148611873981e+00 0 0 -1
1029 1 4.4162103503176064e+00 2.5442008448018910e-01 7.8326128901372838e-01 0 0 0
1358 1 2.0760072190737708e+00 6.2478724622574866e-01 2.1071935629444702e+00 1 1 1
860 1 4.4630840241810743e+00 2.9800578676083282e+00 3.9335834264781813e+00 1 1 1
976 1 4.3016842454602910e+00 3.0058038923562025e-01 4.4562105719843901e+00 0 0 0
1081 1 3.4891854232474593e+00 3.2714035108740749e+00 3.6234668876769827e+00 0 0 1
124 1 2.9295748224461624e+00 3.8340213259959932e+00 4.3099274616052847e+00 0 0 0
3764 2 5.9282995725608636e+00 9.8211079647645294e-01 1.6990423997413178e+00 1 1 -1
1019 1 2.9405096650897717e+00 3.4765001302309990e+00 9.6239091228377172e-01 0 0 0
1198 1 1.9852153071712668e+00 3.8052989699900435e+00 1.2111087752576666e+00 1 1 0
3627 2 2.8330294377152656e+00 4.2727345320702534e+00 7.4754916027283258e-01 0 0 1
814 1 3.7111080246254113e+00 2.3542791157081444e+00 4.3330492867674621e+00 1 1 0
1194 1 4.3446718583194777e+00 1.9362317754979415e+00 3.5742620018171114e+00 1 1 0
567 1 3.9740407116672811e+00 3.3175160594055386e+00 1.1029328248929819e+00 0 0 0
669 1 3.5578639892013246e+00 4.2463847196267981e+00 1.3991903373267616e+00 0 0 1
1062 1 3.1909802265396974e+00 2.2115979312608829e+00 3.4528695383725045e+00 0 0 0
1051 1 3.4555961047629600e+00 3.9084599167279594e+00 1.8271043629340220e-01 0 0 0
3884 2 3.0970167092300374e+00 2.9569192393970574e+00 4.3379702258630299e+00 0 0 1
2164 1 2.5317390437161880e+00 2.9464644328546590e+00 3.7062610915298730e+00 0 0 1
574 1 1.6372009342689930e+00 3.9669683088064014e+00 4.7295442692680840e+00 0 0 0
253 1 5.8318398765376134e-01 2.6692883599857020e-01 1.2557458852850842e+00 1 1 0
1007 1 2.7017196500856802e+00 2.1059641944095571e+00 4.4664416587374030e+00 0 0 0
1167 1 1.5460723664920366e+00 2.1561782969467367e+00 4.3673167144107037e+00 0 0 0
4119 2 2.3881338051131875e+00 2.1030279685933397e+00 3.5711725172542512e+00 0 0 0
3719 2 1.7514720940878734e+00 3.0115573376150238e+00 4.2329419732710658e+00 0 0 -1
572 1 1.5964638871241046e+00 2.5769624062016723e+00 3.4846980337982507e+00 0 0 0
3799 2 -1.0469185911276897e+00 4.0212195302747533e+00 5.4076184040411646e-01 1 1 0
159 1 9.7875692074246401e-01 6.1660245697861349e-01 2.3054804776946511e+00 0 0 0
1042 1 -3.1053610303058754e-01 4.4096438182121229e+00 3.9585603779960760e-01 0 0 0
559 1 5.9698052987558459e-01 4.4645296231155784e+00 4.0987207752746766e+00 0 0 0
1134 1 1.4698727836287286e+00 1.5820787985571798e+00 2.4502567300072302e+00 0 0 1
1040 1 2.3317740254844788e+00 1.6717560489213841e+00 1.6495578028575975e+00 0 0 0
1783 1 3.2003096328153768e+00 8.8854187844984422e-01 2.1772710354990723e+00 1 1 0
3878 2 3.6936861488389052e+00 8.5617123761065805e-01 1.4689039646018913e+00 0 0 1
631 1 2.4153594686701441e+00 1.2280287913601839e+00 2.9569392074323555e+00 0 0 0
3756 2 5.0956236767431893e+00 5.8006442060665742e-01 1.2073387703294904e+00 0 0 1
1818 1 3.8117381880031407e+00 1.0833750454334247e-01 2.9211351593827684e+00 1 1 1
575 1 3.5816275718868047e+00 1.2250152483155350e+00 3.1499330535813792e+00 0 0 0
722 1 4.1990681474125457e+00 1.4706674133868067e+00 1.9556111444488380e+00 1 1 0
1147 1 4.5160357048030297e+00 1.0886006791830924e+00 2.8881311346817191e+00 0 0 1
1351 1 5.1252280132052377e+00 1.0728245729926689e+00 2.0241601425140971e+00 1 1 0
3775 2 5.4727679144487462e+00 1.5114608975394308e+00 2.9148472216787429e+00 1 1 0
548 1 3.8511712630998352e+00 3.4618483406778049e+00 4.6341655718996178e+00 0 0 0
1132 1 2.4567682310908512e+00 2.6680977524835770e-02 4.6499792956571770e+00 0 0 0
1065 1 8.6753518092850823e-01 1.9894959397555785e+00 1.5171001350617321e+00 0 0 0
1855 1 5.9875925037744659e+00 5.1223954629725343e-01 9.8832962272833091e-01 1 1 1
636 1 -4.0284358757032246e-01 4.0513866470177424e+00 2.3103111824757958e+00 0 0 1
550 1 2.1702490005990431e+00 4.4174543825188737e+00 2.4908936975618983e+00 0 0 0
2941 1 1.1689032069669274e+00 2.5790983237216238e+00 2.4691007286884838e+00 1 0 0
3608 2 1.0788215695928636e+00 2.0003358159674485e+00 3.1279194766951250e+00 0 0 0
555 1 1.3359657286272846e+00 1.0472461144519138e+00 1.4691964287067167e+00 0 0 0
505 1 2.7355451522160621e+00 2.6325730558475908e+00 1.6078691434420467e+00 0 0 0
663 1 2.2207358351974653e+00 2.2910643398255193e+00 2.6170164918757477e+00 0 0 0
3686 2 2.1584942154458200e+00 3.1146103616121534e+00 2.0285630836015947e+00 1 1 0
1446 1 3.0766546771681478e+00 2.9611506005746251e+00 2.6536144822699925e+00 0 0 0
568 1 3.1860233726195117e+00 1.9233521660087929e+00 2.3453758264457631e+00 0 0 0
3703 2 3.4070812842284659e+00 3.2290791704003072e+00 1.7229263592781492e+00 0 0 0
3533 2 4.1068826278953789e+00 1.7821003828109605e+00 2.7428368507399439e+00 1 1 0
1462 1 3.8676354749040951e+00 2.4277825790908225e+00 1.7663287887138701e+00 0 0 0
1511 1 4.0574053756322916e+00 2.6410454183757244e+00 2.8991317083942083e+00 0 0 0
1561 1 4.7444208602098197e+00 3.0200657228437957e+00 2.0357849821362333e+00 0 0 0
2197 1 4.9651239156734297e+00 2.0840458517573168e+00 2.5143261257617340e+00 1 1 0
566 1 4.9253383203023597e+00 2.1435502021269950e+00 1.5142155276723210e+00 0 0 0
1721 1 5.0470758683522767e+00 2.9305617370158350e+00 3.0551406745679870e+00 1 1 0
254 1 -1.0731213714249337e+00 2.5795538905081905e+00 1.4155877804990680e+00 1 1 0
599 1 9.1803506818665048e-01 8.5866747379401653e-01 3.2529861065211958e+00 0 0 0
3610 2 -1.0492530204597910e+00 3.9513021281842353e+00 2.8422178471323032e+00 0 0 0
3844 2 -8.8986990283088896e-01 4.6610110842788517e+00 1.9029439244778907e+00 0 0 0
1190 1 8.5083854379064883e-01 1.1808427939420689e+00 4.8914920346436480e-01 0 0 1
878 1 5.8169648515864774e+00 7.0136449609355711e-01 4.6715861950547017e+00 1 1 0
3865 2 4.0856121155772813e+00 4.4371283500073107e+00 7.6449843648996074e-01 0 0 0
580 1 4.8749735921545145e+00 1.1009884935913841e+00 3.8514276359949622e+00 0 0 0
1950 1 5.9842890462896827e+00 1.1085714747997004e+00 3.6149877924019358e+00 0 0 0
171 1 -8.8941405638724080e-01 3.7483448128275532e+00 1.3413797354511205e+00 0 0 1
1440 1 2.0870902216999991e+00 3.3201437870693162e+00 2.8202769425594605e+00 0 0 0
664 1 2.7797183594521999e+00 3.7740109209178714e+00 2.0211243188716375e+00 0 0 0
1913 1 2.0030821673844539e+00 1.3021830822805980e+00 4.6474106943796727e+00 1 1 0
994 1 2.9205599998155014e+00 4.1099971031926774e+00 3.2040779095758762e+00 0 0 0
1428 1 4.5862007178005761e+00 4.1697884987534986e+00 1.6150216225977607e+00 0 0 0
30 1 3.9031754248133907e+00 4.3095135807453273e+00 3.9292345679437566e+00 0 0 0
534 1 4.5592173657759689e+00 3.8271952300878262e+00 3.1589652983710330e+00 0 0 0
1271 1 3.8975120376694621e+00 3.7047511373458670e+00 2.3040192394187629e+00 1 1 0
3602 2 5.1240649113170829e+00 2.8943133812872446e-01 4.4147133917267150e+00 0 0 0
2360 1 3.7744523672049679e+00 1.2834428096357295e+00 4.2442612083190596e+00 1 1 0
3856 2 4.1203664467632164e+00 7.0087355861158052e-01 3.6351891703061812e+00 0 0 0
386 1 3.3647297102112925e+00 3.4322810476290522e-01 3.9138524894933333e+00 1 1 0
235 1 2.8110355397573659e+00 1.2117784391575381e+00 3.9403013865844416e+00 0 0 0
481 1 1.6746415232045049e+00 1.5498820845374242e+00 3.5855731254289136e+00 0 0 0
1054 1 1.9915936995523944e+00 5.7459019509017562e-01 3.6941721301827122e+00 0 0 0
751 1 2.7640848901383852e+00 2.1689769377217494e-01 3.0312560617930617e+00 1 1 0
4264 2 1.6674129517537739e+00 8.8308822149956356e-01 2.8207049908293111e+00 1 0 1
2174 1 2.8142772211717286e+00 3.6789710763182060e-01 2.2931700052286186e-01 1 1 0
652 1 4.3763340542292301e-01 6.9278347758083492e-01 4.2969451701365182e+00 0 0 0
4238 2 2.8246415078158393e-01 3.7769128286913265e+00 1.7428965960489773e+00 1 0 0
3588 2 3.7415951447938767e-01 3.5495786102174578e+00 3.4789026618214236e+00 0 0 0
543 1 -1.3320096182371166e-01 1.5809048349949679e+00 4.4813394333501000e+00 0 0 0
3619 2 1.2022326315197926e+00 3.2303495655136341e+00 3.0718098047933409e+00 0 0 1
166 1 -3.6587888634875720e-01 1.6055360007556605e+00 3.4728283360471894e+00 0 0 0
3688 2 6.8869994991609973e-01 3.7812131870174639e+00 4.7941748199440504e+00 1 1 0
558 1 -2.1441309559298738e-01 1.9619294892227268e+00 1.9215842702349430e+00 0 0 0
529 1 4.2547008439496992e-02 4.3912182829355650e+00 3.1892919265988602e+00 0 0 0
622 1 1.4596469525726574e-02 2.4857738551030422e+00 9.3136522262841237e-01 0 0 1
1022 1 1.1203051675992304e+00 4.1125098115089198e+00 3.1980882389962826e+00 0 0 -1
2976 1 -1.6072314200538289e+00 4.2288737382986952e+00 2.1295264607576354e+00 1 0 0
779 1 -9.0813173222472965e-01 4.3294065347516595e+00 3.6911215583266945e+00 0 0 0
656 1 1.2880869030845512e+00 3.4113223911115638e+00 5.4507830722024664e-01 0 0 1
1018 1 -6.9791154496520624e-02 4.4674640198482889e+00 1.3881625562041429e+00 0 0 0
3464 2 1.8374568741351144e-01 3.9165341163348064e-02 3.7569283240413878e+00 0 0 -1
3127 1 1.0117653698986273e+00 3.4404367435290948e+00 4.0296286750843979e+00 1 0 0
177 1 -4.5497507088974221e-01 3.4973890063515443e+00 3.2080874291100154e+00 0 0 0
668 1 8.0820899079943609e-01 3.0683947904347879e+00 1.4973930295925213e+00 0 0 0
1000 1 2.6220038876731355e-01 1.1050415775256606e+00 1.7960528173642096e+00 0 0 0
3599 2 -6.2179974536500926e-01 3.0481300115270811e+00 7.7862283741211757e-01 0 0 0
4250 2 -2.6048607102488019e-01 4.5999710871517774e+00 4.3147631306650416e+00 1 0 1
1073 1 4.7744014320668926e+00 1.2580939729128890e-01 3.5444267726965961e+00 0 0 0
962 1 6.7677306337188958e-01 4.3986615966685880e+00 2.2398693373216951e+00 0 0 0
232 1 -3.2398071115587124e-02 3.6865957163759520e+00 4.2552049384251944e+00 0 0 0
1376 1 3.9962891870166695e-01 1.6941108313238267e+00 2.6677157204099720e+00 1 1 0
4148 2 -9.1993840589564291e-01 3.5061194399803002e+00 4.0072542101915447e+00 1 0 0
1039 1 1.4572692458990635e+00 3.6268993970671310e+00 2.1785462790119818e+00 0 0 0
4214 2 -4.7419181283471112e-01 1.5934839048771547e+00 2.6316666919412186e+00 1 0 0
3631 2 1.7299401419005527e+00 4.7216313701437267e+00 9.9362031412908380e-01 0 0 1
851 1 -1.8703300136925688e-01 8.1145389081421671e-01 7.8068586108214055e-01 1 1 0
802 1 4.4031622488383282e-01 2.5895902456728797e+00 4.4247591065019600e+00 1 1 0
1117 1 2.2898326489142118e+00 3.8677241528732855e+00 1.7934780712277199e-01 0 0 1
83 1 -4.4757296511659939e-01 2.4504136277146942e+00 2.8112150264385205e+00 0 0 0
288 1 -3.8902274623893740e-01 2.6372446036711752e+00 3.8442888619216671e+00 1 1 0
3028 1 -1.0929457856561045e+00 3.2512929389233816e+00 2.2967815348289147e+00 1 0 0
3040 1 1.3173650835307245e+00 4.4681061795527999e+00 2.9884997594493484e-01 1 0 0
2996 1 9.3823219106778577e-01 4.1931975147113869e+00 1.2728575182312569e+00 1 0 0
1380 1 5.4557779264661104e+00 1.0916566203841511e-01 1.8050771368544516e+00 1 1 1
3128 1 5.0216964181725787e-01 2.6113923262922434e+00 3.2875685862553992e+00 1 0 0
4278 2 -1.7726957582484295e+00 4.5911774269057606e+00 4.1307214248494608e+00 2 1 -1
4263 2 3.9494232892437053e+00 4.7261523189095032e+00 1.9903814402600004e+00 1 0 0
615 1 -2.3411508050344287e-01 3.0085113324742796e+00 1.7504853743084643e+00 0 0 1
1491 1 1.3970340219070596e+00 4.0764215191688724e-01 4.6603552111794437e+00 0 0 -1
3606 2 3.4796210812547712e-01 2.6336432152288927e+00 2.2537585235324409e+00 0 0 0
180 1 -1.8507298873719753e+00 4.3743884922210192e+00 4.4174196521586362e-01 0 0 1
263 1 -9.6166488548647111e-01 4.7935934839624004e+00 2.7566118039676222e+00 1 1 -1
4240 2 5.3769101800419428e-01 4.8214164208490651e+00 6.0031601854746541e-01 1 0 0
2098 1 4.4587345644053080e+00 3.8138422519002870e+00 2.1728951625990772e-01 0 0 1
733 1 2.8235946202437185e+00 2.9596009368533620e+00 5.1728934633107314e-03 1 1 0
90 1 2.7942754420071356e+00 4.7897979836441982e+00 3.9630658737723921e+00 0 0 0
1526 1 2.3425855323116771e+00 3.1572032835509609e+00 4.7701694490517896e+00 0 0 0
4208 2 -4.3661000572963338e-01 3.1157328236077655e+00 4.7003116966759135e+00 1 0 0
655 1 3.1052898303268917e+00 4.6881262312653726e+00 2.2753686793638179e+00 0 0 1
323 1 4.3336693121203829e-01 2.9421430773554929e+00 5.1406545065647485e-02 1 1 0
700 1 -1.2037389166033190e+00 2.8151260894497372e+00 4.4704171386812686e+00 0 0 0
1286 1 1.5630651967860436e+00 5.8861861028798633e-03 2.8373443394075393e+00 1 1 0
370 1 1.0884208687980061e+00 1.1401899433482723e-01 8.1048467244273237e+00 1 1 0
869 1 2.6210755741788905e-01 4.6635140333065115e+00 8.2683859858500188e+00 1 1 0
186 1 2.9846745073259386e+00 4.2502381268462353e+00 8.4071183359943920e+00 0 0 0
1099 1 1.1839135155557186e+00 4.4517286995984184e+00 6.4934858895221650e+00 0 0 0
538 1 4.1174689356159613e+00 8.8879373335300493e-01 6.5930387757534499e+00 0 0 -1
153 1 1.1826369634928668e-01 4.3410418326777913e+00 5.1743801292060105e+00 0 0 1
913 1 6.9457702459504611e-01 1.4262174716671703e+00 6.2570767816888360e+00 1 1 0
3924 2 5.1103811072219054e+00 1.3524403853095437e+00 7.4327441864398960e+00 1 1 -2
1079 1 -9.1275574358850986e-01 3.0991804377933798e+00 5.5665174396043700e+00 0 0 0
3752 2 1.4049490399530615e+00 1.7606908687024228e+00 5.6732731076345413e+00 0 0 0
526 1 1.3239668245563427e+00 8.7079407075415372e-01 5.5752028156069011e+00 0 0 -1
1080 1 2.2387408179625035e+00 1.3400470886162414e+00 5.7843459770693793e+00 0 0 0
4295 2 5.3969163474105641e-01 4.7257781588546693e-01 8.8646069818319351e+00 2 1 0
1498 1 2.0804556303219499e+00 6.0986200236643850e-01 6.6471721824369689e+00 0 0 0
1683 1 3.2912117438676676e+00 1.2220912389481187e+00 6.0982963454267844e+00 0 0 0
1199 1 3.7426264114815191e+00 1.6822687797425526e+00 5.1398406641072487e+00 1 1 0
4081 2 2.9617066102115781e+00 3.7367913946511107e+00 9.1914983297948698e+00 0 0 -1
1349 1 4.9677186265651505e+00 9.0477422423536746e-01 6.0126244435685674e+00 1 1 0
4122 2 5.5294982547543698e+00 1.2805171571188678e+00 5.3663972304688121e+00 0 0 0
517 1 3.0074560547678049e+00 4.6636486092862794e+00 9.3611124099669496e+00 0 0 0
1907 1 5.9877650043745536e+00 7.0988566065477432e-01 6.1214403539238038e+00 1 1 0
626 1 1.0574146492832708e+00 2.5471404350425395e+00 7.2266236862354862e+00 0 0 0
933 1 -1.9198949647050711e-01 3.0697907876041119e+00 8.6881887482181899e+00 1 1 0
3513 2 -6.0585086126095644e-02 1.0524564761831579e+00 6.3561517367869333e+00 0 0 0
80 1 -2.6861135725286722e-01 4.8030810560838066e+00 7.3570864470071813e+00 0 0 0
4064 2 4.4427857475611665e+00 1.5817281239780490e-02 7.7167944268373487e+00 1 1 0
4078 2 6.2355657945303493e+00 3.6706254029809354e-01 5.3790839700344870e+00 1 1 0
1180 1 6.8627052066295602e-01 2.2097917893850356e+00 5.6252223811901425e+00 0 0 0
970 1 3.5215940710712066e+00 4.5756128105305764e+00 4.9359880047616231e+00 0 0 0
1114 1 2.0738707704250103e+00 2.2113423521995705e+00 5.2951968403146514e+00 0 0 0
1187 1 2.8036540746545953e+00 2.3252272550230093e+00 6.0878258201028315e+00 0 0 0
659 1 1.7623223856240837e+00 3.0280670162111987e+00 6.0651494451914871e+00 0 0 0
3713 2 2.5022865892189134e+00 3.0752035583648083e+00 5.6312284009280402e+00 0 0 0
698 1 1.5158618610822749e+00 2.0885756150350185e+00 6.4099342782145570e+00 0 0 0
1177 1 3.2247209632383598e+00 2.6966729443089266e+00 5.2092341610314916e+00 0 0 0
1853 1 3.9373745885380185e+00 2.1033863468211651e+00 6.1668618916817000e+00 1 1 1
3123 1 3.6706283233129842e+00 3.0535547558235598e+00 6.1360152642355423e+00 1 0 0
3577 2 4.6256600299028738e+00 2.7538008595962764e+00 6.1596248365285717e+00 0 0 -1
1647 1 4.8145659685365469e+00 1.9455166571525206e+00 5.6071058918521182e+00 0 0 0
1676 1 4.3586306156911752e+00 2.8508279379713799e+00 5.2860096743293132e+00 0 0 0
3032 1 -7.3332267084559666e-01 2.0630930858409346e+00 8.9322628753306201e+00 1 0 -1
227 1 2.1588817723850231e+00 3.6920447788752391e+00 8.8617186037840963e+00 0 0 0
621 1 2.7371828358593464e+00 3.0953557376024221e-01 5.8375659508977265e+00 0 0 0
784 1 5.8958332663403450e+00 1.2335322023787294e+00 6.9767286988350863e+00 1 1 0
1093 1 2.0703408452932828e+00 3.9422154506673377e+00 5.6742740288892453e+00 0 0 0
2088 1 3.0841860387886992e+00 3.7334717654116760e+00 5.3994660682505522e+00 0 0 0
127 1 2.7060676149831533e+00 3.4313120706011078e+00 6.3782227743433069e+00 0 0 0
1085 1 4.2858128162314539e+00 3.9433532641021900e+00 5.5372556191979845e+00 0 0 0
3016 1 3.6428854861774069e+00 4.1816219656702005e+00 6.3305101692823174e+00 1 0 0
1078 1 4.6857898709212540e+00 2.6404883310420195e+00 8.1404566929919184e+00 0 0 0
1107 1 2.2224030615705579e+00 8.7855480101047778e-01 9.2429090121315465e+00 0 0 0
4297 2 2.8160710575908818e+00 1.6814958707703781e-01 9.0729204915499633e+00 2 1 1
624 1 4.7832462139924159e+00 2.3661968102194644e+00 9.2410558799300517e+00 0 0 0
1183 1 3.4696918198585474e+00 3.2225642873726930e+00 8.6480588876325726e+00 0 0 0
3849 2 4.0604269388552368e+00 2.5203284615626620e+00 8.7979260250861930e+00 0 0 0
1453 1 3.3247806220756182e+00 2.2222281398722439e+00 9.0367243804623865e+00 0 0 -1
3739 2 9.4457092941176779e-01 2.2247755795503386e+00 9.4653790366133634e+00 0 0 0
1067 1 1.5182846620380475e+00 2.1519903431518284e+00 8.5635662100230885e+00 0 0 -1
545 1 1.0231052401392384e+00 7.9609599800775421e-01 7.1122683857414550e+00 0 0 -1
973 1 2.5039420906745424e+00 2.7259557005612520e+00 8.7293394664480211e+00 0 0 -1
4219 2 1.5402086393701939e+00 1.2534378167425697e+00 6.4155788952938764e+00 1 0 -1
1109 1 2.3050299948275850e+00 8.9250687623128955e-01 7.7081138052360787e+00 0 0 0
3658 2 2.6389436144866778e+00 9.0313670947604019e-01 8.4939774536837849e+00 1 1 -1
1213 1 2.3752200625566022e+00 1.6577557520487458e+00 6.8636788567672049e+00 1 1 -1
4241 2 4.2440465145896473e+00 1.3220386100522010e+00 5.8121943499289932e+00 1 0 -1
2072 1 3.0574773348393967e+00 6.8061987881646957e-01 7.0125646792241323e+00 0 0 0
1569 1 3.9268944347321120e+00 6.7620306403609143e-01 7.6333277679877396e+00 0 0 0
1606 1 3.4581386305408133e+00 1.6254750859957219e+00 7.2027206816276230e+00 0 0 0
1175 1 4.3518253068423833e+00 1.6643483864339077e+00 7.7099658647356604e+00 0 0 0
704 1 3.3300418614335041e+00 1.4197827131506711e+00 8.2545742776912334e+00 0 0 0
2057 1 4.8966093699108786e+00 5.3358042602839029e-01 7.1624962896638031e+00 0 0 0
3978 2 4.9791535329652916e+00 1.8922196399884956e+00 8.3333888697746819e+00 1 1 0
1301 1 4.8497948185512376e+00 1.7024247810787361e+00 6.6646565032595957e+00 1 1 -1
1069 1 1.9243336195895305e-01 9.4566602729270233e-01 5.4343927247885189e+00 0 0 0
4177 2 2.9134129924724417e+00 1.7717020405534636e+00 5.3917925869000625e+00 1 1 0
602 1 -4.0482540159010005e-01 2.3733900678548445e+00 5.0964122079232190e+00 0 0 0
1533 1 7.2871001790325562e-01 1.7088276932603168e+00 7.9480666425860855e+00 0 0 -1
4223 2 9.7477526667767345e-01 1.6997390627031144e+00 7.0610877219112576e+00 1 0 0
2586 1 -9.0808964315071750e-01 2.4074276197189306e+00 6.3479298856378081e+00 1 0 0
275 1 6.4458184088802584e-01 3.7772591019648150e-01 6.2427965931686531e+00 1 1 0
4159 2 -6.9723750988250788e-02 1.3855605301937557e+00 8.8255929283977643e+00 1 1 -1
1186 1 1.6625418057291208e+00 1.7487590759878768e+00 7.5778345765704991e+00 0 0 0
1591 1 2.1709618399412909e+00 2.7358849625767876e+00 7.0341209965667169e+00 0 0 0
948 1 2.6485701962137549e+00 2.1384623261689497e+00 7.8535636229158152e+00 1 1 0
569 1 1.7698258046005175e+00 3.0577408145268112e+00 8.0352403436445741e+00 0 0 0
1146 1 2.8207169650816240e+00 3.2239618003099748e+00 7.8745435591576758e+00 0 0 0
547 1 3.2268154725176945e+00 2.7353512633928303e+00 6.9916348902816159e+00 0 0 0
1665 1 4.3370721882264194e+00 2.5286942733912507e+00 7.0129190161872721e+00 0 0 0
899 1 3.6687853715180596e+00 2.3854744147172529e+00 7.9844856562132280e+00 1 1 0
954 1 3.9860188573422297e+00 3.2770565129991187e+00 7.6488377375684582e+00 0 0 -1
1435 1 5.3467101319890515e+00 2.1783216087159336e+00 7.5574852942887993e+00 0 0 0
1128 1 3.9089285066087354e+00 5.9238535897452693e-01 5.4737086613648449e+00 0 0 1
3961 2 2.1172677696388100e+00 4.6079388468151841e+00 9.2685391202570884e+00 0 0 0
3461 2 1.5060967031284347e+00 3.7354358003020081e+00 9.4895600725775342e+00 0 0 -1
1092 1 5.6191936504634521e-01 3.8907491185594454e+00 9.5501341899441261e+00 0 0 0
2044 1 5.3775098491062252e+00 6.9950760737020654e-02 5.3645027570822688e+00 0 0 0
1016 1 3.9006878768162041e+00 4.1101073150054361e+00 9.0006457509267896e+00 0 0 -1
1155 1 2.1785604035603283e+00 4.2980010125141099e+00 6.7029777136217650e+00 0 0 0
108 1 2.1666635157617620e+00 4.0880334299731897e+00 7.7627071373727476e+00 0 0 -1
3755 2 2.3710915304491111e+00 3.5012651278493396e+00 7.1717415653236678e+00 0 0 0
1566 1 4.6007864461532524e+00 4.0552057051631687e+00 8.2196442133465837e+00 0 0 0
1865 1 4.3480204896682091e+00 8.3437000865915723e-01 9.3839526724486273e+00 1 1 0
670 1 4.4927342244214632e+00 3.4819393526851194e+00 6.6163671956527992e+00 0 0 0
56 1 1.6883873731749570e+00 1.8185559514016070e+00 9.5163968272103361e+00 0 0 -1
3737 2 3.6302914662649215e+00 3.4963270556068022e+00 6.8995162980547367e+00 0 0 0
2135 1 3.1216167535802843e+00 4.0535383640958562e+00 7.2518977773043600e+00 0 0 0
961 1 4.1924286057872600e+00 4.2390836237453078e+00 7.2532350243156198e+00 0 0 0
4289 2 8.6820800520354768e-01 2.6867498566379280e+00 8.3004176647729668e+00 2 1 0
4101 2 3.7606151066276308e+00 3.9539546947268565e+00 8.1125717657085623e+00 0 0 -1
1691 1 5.2346497649187818e+00 1.4732772405398289e+00 9.0681880918423658e+00 0 0 0
1626 1 5.5532392946930953e+00 4.7386536343996927e-01 8.9165286663139227e+00 0 0 0
2385 1 5.7968700878900226e+00 1.2644989477389470e+00 8.1146931299030509e+00 1 1 0
1836 1 4.8480628341277434e+00 9.4095209561490512e-01 8.2423562078413006e+00 1 1 0
1722 1 5.5071365540500716e+00 1.0987968752162909e-01 7.9633265296924156e+00 1 1 0
1630 1 4.2198873621528179e+00 1.6575791977612362e+00 8.7126240360321781e+00 0 0 0
3699 2 2.4955705235442611e+00 2.2259786043023917e+00 9.4616016492040043e+00 0 0 -1
3196 1 3.2592401392630449e-01 7.5519276632251531e-01 7.9803998162127057e+00 1 0 0
4312 2 -2.2946364276566378e-01 2.5487336698704213e+00 9.3642208072471504e+00 2 1 0
1083 1 3.3306280755340976e+00 9.5526001291235618e-01 9.1317311719596130e+00 0 0 0
109 1 8.1535568615592446e-01 1.2797596291561166e+00 9.1010131572655748e+00 0 0 -1
1514 1 4.5553551950145597e+00 3.2988251520599392e+00 8.9224238919281280e+00 0 0 -1
3518 2 1.3936915484357628e+00 1.9606263595558622e-02 6.6367388430832710e+00 1 1 0
1614 1 3.2492338964344958e+00 3.0872693776905291e-01 8.2942403940889982e+00 0 0 0
978 1 1.5631661753441279e+00 1.0221396428330625e+00 8.4205921919834097e+00 0 0 -1
1318 1 2.4463363205197233e+00 1.7071783801129743e+00 8.7482153354168890e+00 1 1 0
3168 1 -1.2682294771388141e+00 3.5860162822412107e+00 7.7694804835300078e+00 1 0 0
3868 2 3.9155234396439917e+00 7.8783519537195223e-01 8.5272879771031675e+00 0 0 -1
1434 1 2.1651411210128191e+00 1.4417410583947274e-01 8.4847806328538340e+00 0 0 0
1090 1 2.9299893250158320e+00 9.4498956300745318e-01 4.9879614030340251e+00 0 0 0
125 1 -1.8148346205980708e+00 4.5512384772502124e+00 7.6578029859085959e+00 0 0 0
1590 1 4.3375548672484605e+00 9.4753203902258831e-02 8.5722013311642371e+00 0 0 0
1327 1 5.8548237925836872e+00 1.2159041262440667e-02 6.9684127244497382e+00 1 1 0
179 1 1.1840614391861015e-01 1.3738462552988280e+00 7.1481989352216004e+00 0 0 0
675 1 7.7829945846355963e-01 3.1124447164894469e+00 6.3502347812046986e+00 0 0 0
216 1 7.9517273996703408e-01 3.3760071281552135e+00 7.7940421617937830e+00 0 0 0
4300 2 5.3836508481546632e+00 1.5320931303844385e-01 6.1938219212309233e+00 2 1 0
1057 1 2.7968003475398033e+00 4.6553503887292820e+00 5.8637922186395599e+00 0 0 0
695 1 -3.0679254353978769e-01 1.7268056175476814e+00 5.8712749440760597e+00 0 0 0
601 1 1.0410714758928192e+00 3.9011821235361066e+00 5.6060872297935926e+00 0 0 0
223 1 -1.3187038366160651e+00 3.9920522448712474e+00 6.0029217676004452e+00 0 0 0
583 1 1.4670903525257313e+00 3.5297105569778577e+00 6.9690218119665692e+00 0 0 0
4302 2 -1.2238928927522208e-01 2.7000484215906377e+00 5.9029070509751627e+00 2 1 0
3512 2 4.3023794077341382e-01 4.1039883840990017e+00 6.1920378307293937e+00 0 0 1
341 1 -2.3438339750623793e-01 3.7204897290322907e+00 7.8807862045902803e+00 1 1 -1
3100 1 -9.5260456635919843e-01 4.1213485910478189e+00 7.0127143300250045e+00 1 0 0
69 1 -2.1465312482382060e-01 4.0501605957837654e+00 8.8882255896652484e+00 0 0 -1
3704 2 -4.9199849636146875e-01 2.1042501772591344e+00 7.2295106921145669e+00 0 0 0
3115 1 1.0850767166732165e+00 3.3065229628493769e+00 8.8573096339803339e+00 1 0 0
3586 2 3.6858878123222083e-01 3.0705494450516371e+00 7.1709905501433147e+00 0 0 -1
676 1 2.8300961617809328e-01 3.1907560124716317e+00 5.3200417840401837e+00 0 0 0
1015 1 1.3197643381627457e+00 4.3780375723112268e+00 8.8725047728499593e+00 0 0 -1
1906 1 4.7799979227755802e+00 1.0069538091953569e+00 4.9761466268615751e+00 1 1 0
3598 2 3.5223168063364998e+00 3.0252601391419753e-01 6.2741055269475430e+00 0 0 0
1133 1 -2.3300503158508512e-01 3.6570367759641731e+00 6.1235496991192075e+00 0 0 0
40 1 -8.9237105085513901e-01 4.5498723504482177e+00 8.2871615906967424e+00 0 0 -1
3774 2 -8.6420615760997199e-01 3.6862579068112078e+00 8.5112687647351795e+00 0 0 -1
1482 1 1.2589622298150089e+00 2.9996562796079966e+00 4.9897013928868788e+00 0 0 0
1638 1 1.1888129786022446e+00 4.3381789383510627e+00 7.8386575930152400e+00 0 0 0
553 1 -8.8599132039412121e-01 2.6402053970547041e+00 8.0648449574884520e+00 0 0 -1
3930 2 -1.1857656879300573e+00 3.2312839938548632e+00 6.4790618505404263e+00 1 1 0
3729 2 5.3092182094538742e-01 3.9192160320189697e+00 8.4413460720653291e+00 0 0 0
1565 1 1.1674385464193948e-01 2.5814394593802223e+00 7.8024801864707731e+00 0 0 0
891 1 -3.8015597573300072e-02 3.1484132927012981e-01 7.0229803727228779e+00 1 1 0
1620 1 3.2315102337849577e-01 2.1263867275456825e+00 8.8420256542557478e+00 0 0 0
2989 1 -4.6606858096551529e-01 3.2017003129361439e+00 6.9890789794038213e+00 1 0 0
595 1 -3.7322377148491453e-01 1.6179165815199201e+00 8.0345740378394517e+00 0 0 0
3140 1 -1.1469723786913737e+00 4.1363420071376913e+00 9.3025798825584936e+00 1 0 0
3611 2 2.1064718780281217e+00 5.5327312299257969e-01 5.1793938955466725e+00 0 0 1
3918 2 1.4336096711947144e+00 9.1044213063569568e-01 9.5873025170796957e+00 1 1 -1
1101 1 3.3961627810442052e-01 3.9652804650394891e+00 7.0398827669956621e+00 0 0 0
160 1 -2.7029477788937295e-01 4.6246322760016492e+00 6.3266553321686132e+00 0 0 0
230 1 1.9856177169064726e-01 2.2674218845347700e+00 6.6378510023007609e+00 0 0 0
3722 2 7.2696918548159550e-01 2.6001932010311690e-01 5.2787826537513594e+00 1 1 -1
3540 2 -1.8219463314020072e+00 4.7507579764978347e+00 5.8295030056208335e+00 1 1 0