LAMMPS data file via write_data, version 12 Dec 2018, timestep = 220440

4320 atoms
2 atom types

0.0000000000000000e+00 1.9309999999999999e+01 xlo xhi
0.0000000000000000e+00 1.9309999999999999e+01 ylo yhi
0.0000000000000000e+00 9.6549999999999994e+00 zlo zhi
6.4495399999999989e+00 0.0000000000000000e+00 0.0000000000000000e+00 xy xz yz

Masses

1 1
2 1

Atoms # atomic

2850 1 9.6168378882965051e+00 2.3807841338024147e+00 2.2182898827344317e+00 0 1 0
3793 2 6.8463619495085117e+00 4.1692332238841506e-01 3.9331122656919110e-01 0 1 0
2330 1 9.3290414011985021e+00 2.6787030400147072e-01 9.6601307204596421e-01 0 1 1
3798 2 9.8052578535977712e+00 1.1384712170809694e+00 3.6252531865437234e+00 0 1 0
3622 2 5.3373172235437838e-01 6.3068314369011258e-01 8.8117058810298043e-01 0 0 1
1870 1 8.0362401080274726e+00 1.6513627591241316e+00 3.6129837586380364e-01 0 1 1
4263 2 5.1584238602571775e+00 4.7809321567833694e+00 2.1439250437684696e+00 1 0 0
3205 1 8.2109508724625413e-01 1.4931785739607137e+00 1.0074344097692380e+00 1 1 0
1544 1 8.6851282614607452e+00 2.3626081571290185e+00 4.7995550858671071e-01 0 0 0
851 1 1.4036962608509840e+00 7.3446716623208896e-01 6.0459150767427849e-01 0 1 0
3635 2 9.2163550751879644e+00 8.3226215928505543e-01 4.6131185612992018e+00 0 0 1
1190 1 2.4862854214545633e+00 1.2679201868881080e+00 1.1444232683349651e+00 0 0 1
2511 1 7.5649884587432732e+00 2.2293694141600189e-02 2.3622298180064623e+00 0 0 0
548 1 5.0849859287650041e+00 3.4276247085476208e+00 4.6974628871579558e+00 0 0 0
1127 1 3.0318388579686890e+00 4.7025854238534626e-01 5.4485831176121846e-01 0 0 1
1554 1 3.5610132637230847e+00 1.2760344332382545e+00 9.7576196805967674e-01 0 0 1
4042 2 2.7277130709502981e+00 1.1459867299298729e+00 4.1886626609602668e+00 0 1 0
95 1 3.8935601463110485e+00 2.8936734326821273e-01 1.3573048921700406e+00 0 0 0
2174 1 4.0806067373542350e+00 5.8115748969443504e-01 3.2763655438403694e-01 0 1 0
2468 1 9.3129630458197781e+00 3.2715083475511895e+00 1.0068515978733708e+00 0 0 0
870 1 4.5289082568819747e+00 1.7094491650105721e+00 1.4221219283873348e+00 0 1 1
1798 1 5.1706320859589372e+00 1.0019760012234615e+00 8.5027237536143851e-01 0 1 0
2689 1 8.8306492692968934e+00 2.3130267016074444e+00 2.8467058301229211e+00 0 0 0
906 1 8.1163454869245992e+00 2.8393174560724921e+00 2.2926744304441100e+00 0 1 0
1615 1 6.1060846565281555e+00 1.6165481867206339e+00 8.9523706755272747e-01 0 0 1
4006 2 1.0794196191108636e+01 3.6581427943385609e+00 4.7151804832534898e+00 0 0 0
1357 1 5.4696944190627867e+00 3.8450137554243102e-01 1.8172767717574332e+00 0 1 1
767 1 6.8364482209173509e+00 8.2518817620473417e-01 1.1592836488800413e+00 0 1 0
1098 1 7.7230673286181446e+00 2.5462919314992165e+00 5.8085437480060058e-02 0 0 1
3468 2 6.8959836691228933e+00 1.8643370407398856e+00 1.3811807178249704e+00 -1 0 1
2132 1 9.2103134573868477e+00 1.5912398707521531e+00 3.9887710884094205e+00 0 0 0
1671 1 8.8394840831511345e+00 4.2506226946666672e+00 8.4159979423354014e-01 0 0 1
1979 1 9.1167773751906385e+00 3.3387636884560830e+00 2.0916228365024052e+00 0 0 0
3771 2 8.5867196842030999e+00 4.0447584926379880e+00 3.5808469033829815e+00 0 1 -1
1066 1 9.8570502308478982e+00 4.1181209822572109e+00 5.9821428652249908e-01 0 0 0
4063 2 8.9577104564782299e+00 8.8262552845135145e-01 2.5802664080485562e+00 0 1 1
194 1 4.1063192454818909e-01 1.0007109541587679e-01 4.6788732199597547e+00 0 0 0
1550 1 8.4475576323591781e+00 3.0909941381673023e-01 4.6580207771069650e+00 0 0 0
2201 1 7.8166825369317401e+00 4.2653071843643042e+00 1.0131276634228399e+00 0 1 0
1531 1 7.7247313289598258e+00 7.5353667198194041e-01 1.8515200882061555e-02 0 0 1
622 1 1.3440132655765209e+00 2.4294918619072141e+00 7.7081251731572620e-01 0 0 1
3750 2 1.7266889422368272e+00 1.6139146487940532e+00 9.9414093313858021e-01 0 0 1
34 1 2.4749184678459137e+00 2.1719700118048220e+00 5.9249217125893672e-01 0 0 0
1065 1 2.0181512410329212e+00 2.2230206416122709e+00 1.5707670799094930e+00 0 0 0
968 1 3.7229145166804436e+00 2.3235806496176687e+00 6.9343238366638371e-01 0 0 1
3708 2 3.7015990853908796e+00 1.9076424395560032e+00 1.5417304434879864e+00 0 0 0
1166 1 3.0229666878217194e+00 2.6318194224536966e+00 1.3645985977728630e+00 0 0 1
3768 2 3.3816412504555422e+00 3.1160958097290856e+00 5.9074167281371692e-01 0 1 0
1651 1 7.4409451962675623e+00 1.4650376861000985e-01 3.4703777743816411e+00 0 0 1
3757 2 5.3310858262824636e+00 1.9229902578987677e+00 1.0626962752145852e+00 0 0 1
1764 1 4.7407398922651431e+00 2.5193203389035355e+00 6.4390532765045572e-01 0 1 0
1617 1 5.8511260463209496e+00 2.6752721052588870e+00 7.0214794048034823e-01 0 0 1
1785 1 6.9007725508098714e+00 7.6982837135038718e-01 2.7726733353722364e+00 0 1 0
1499 1 6.8960159737651603e+00 2.3896383498959142e+00 5.9163540000930270e-01 0 0 1
4116 2 3.0509190614970554e+00 6.9602282689105055e-01 1.4800284552267409e+00 1 0 -1
1505 1 3.2795710922558508e+00 3.8157071601185328e+00 3.7124692607677940e+00 0 0 0
1667 1 9.5118573280362266e+00 8.7094961479444644e-01 1.9146170969903828e+00 0 0 1
4281 2 1.0185314615146243e+01 2.3483203048368528e+00 2.0488680301694687e-01 0 1 0
2076 1 7.7116415433338297e+00 2.1520842319368958e+00 3.1587975287968102e+00 0 0 1
1489 1 9.7429704590808992e+00 2.3578623556075264e+00 3.3318312726937136e+00 0 0 0
2275 1 1.0760048346440042e+01 4.0786854133334618e+00 1.2147360681207000e+00 0 1 0
1897 1 8.2978935337738342e+00 6.9090036001032784e-01 2.0463452336438883e+00 0 1 1
1526 1 3.6975710187126865e+00 3.3876516510546320e+00 4.6212593086706564e+00 0 0 0
3918 2 2.2556130387090167e+00 1.0736874617998575e+00 3.3288588412281311e-01 0 1 0
2081 1 9.9920444133125486e+00 3.4993094984065851e+00 3.8171664725830827e+00 0 0 0
656 1 2.4591772040117768e+00 3.2402715831135325e+00 5.5563681266545084e-01 0 0 1
2996 1 2.2106258121956603e+00 4.3129054520175405e+00 1.2265119813620917e+00 1 0 0
717 1 1.4887664047799765e+00 3.5621452034564758e+00 8.1879499676717604e-01 0 0 1
1538 1 8.4830618776975317e+00 1.2519498293543012e+00 3.2289400461434603e+00 0 0 0
668 1 2.2319665652529990e+00 3.2950665656472129e+00 1.5537491258695948e+00 0 0 0
124 1 4.3442600660808424e+00 3.9813876030314730e+00 4.0877969788425199e+00 0 0 0
3764 2 7.2452432346937083e+00 7.7919381693780287e-01 1.9041106155701568e+00 0 1 -1
1019 1 4.1389244311645106e+00 3.4233002078473569e+00 1.0396522079686545e+00 0 0 0
1198 1 3.1424567435130042e+00 3.7727374754876366e+00 1.1963206609531885e+00 0 1 0
3627 2 4.0235559381781512e+00 4.2871723367101273e+00 9.9879334662889552e-01 0 0 1
2159 1 9.3552416148945170e+00 4.3437704722367139e+00 3.8262495474556535e+00 0 0 0
1242 1 4.2534400989255943e+00 1.6018153409311036e+00 2.2175365472515535e-01 0 1 0
567 1 5.2556011581358675e+00 3.5269056933615213e+00 1.1578293428001480e+00 0 0 0
669 1 4.6571041210985662e+00 4.2749367702506271e+00 1.5831738479759883e+00 0 0 1
3865 2 5.2900447482966637e+00 4.4399297571393150e+00 9.6807620045019116e-01 0 0 0
1051 1 4.7224915549727005e+00 4.0516853879748620e+00 4.5508981350133509e-01 0 0 0
2098 1 5.7373669416005484e+00 3.9430511781591027e+00 2.9853235062815747e-01 0 0 1
1858 1 7.4978743737071465e+00 2.0336876908786872e+00 4.4556028608869154e+00 0 1 0
3855 2 1.6760692250897943e-01 1.9213448240427225e-01 3.7936461113514270e+00 0 0 0
503 1 7.2973484822581325e+00 3.4350232298796493e+00 6.0115880406724054e-01 0 0 0
1506 1 6.3818632870451584e+00 3.5164906890884997e+00 1.0539017287890822e+00 0 0 0
1564 1 6.9125667167376559e+00 4.3875040612486487e+00 2.3936064256165959e-01 0 0 1
1572 1 6.8749323726488125e+00 4.3528662743232278e+00 1.4734516289696802e+00 0 0 1
4240 2 1.8537120608959001e+00 4.6115053569734386e+00 4.6040015470548762e-01 1 0 0
253 1 2.1132568106080099e+00 2.7520751276383126e-01 1.1621419415747813e+00 0 1 0
1029 1 6.0354437874866980e+00 7.8515521728152093e-01 3.1132193900353400e-01 0 0 0
1470 1 8.2334021125093670e+00 3.3836456008572799e+00 1.3922073392832115e+00 0 0 0
1167 1 2.6776105373344312e+00 2.0360911353710960e+00 4.5625280308475773e+00 0 0 0
1485 1 9.4764313785608412e+00 1.5176536893469676e+00 2.9012185483651818e+00 0 0 0
520 1 4.7513824758300183e-01 7.4381773554854258e-01 1.7736160265444505e+00 0 0 0
2428 1 1.0938550645713711e+01 4.1505086966852911e+00 1.9610199420796243e-01 0 1 1
715 1 6.8034797473337005e-01 4.9009006204179817e-01 2.7687632765540791e+00 0 0 0
2250 1 8.4606134791871934e+00 2.5051706368476303e+00 3.9157147608328082e+00 0 1 0
1000 1 1.5017902093309514e+00 1.0068701717898396e+00 1.6128363308074025e+00 0 0 0
4214 2 1.2567116471221267e+00 1.0759761530412821e+00 2.4184263405043009e+00 1 0 0
817 1 1.5276254064289330e+00 1.2299499518236817e-01 2.2083867025343715e+00 0 1 0
159 1 2.3871662153404736e+00 7.2113617502169403e-01 2.0433432764984025e+00 0 0 0
992 1 1.6465196475457839e+00 6.6771501736303007e-01 3.1048682844971833e+00 0 0 0
2854 1 9.5238545360388471e+00 2.6694952045420033e+00 4.3081661393909103e+00 0 1 0
1134 1 2.7528230285429132e+00 9.8308039396231195e-01 2.9863374753066956e+00 0 0 1
1040 1 3.8187936987994684e+00 1.1273256795564381e+00 1.9901577650485245e+00 0 0 0
508 1 5.0995428536825571e+00 4.7094650703633176e+00 3.1145785603999223e+00 0 0 0
1783 1 4.7573743292195276e+00 8.8591156038709085e-01 2.3905787217501069e+00 0 1 0
3878 2 4.6265401884661683e+00 7.8018455171911227e-01 1.4959271735648072e+00 0 0 1
631 1 4.0163632828473652e+00 1.3181210779701165e+00 2.9779100676694905e+00 0 0 0
3756 2 5.9512987404272444e+00 8.0548315344763144e-01 1.2572218900980903e+00 0 0 1
2056 1 9.7853073152825178e+00 1.2602374905762641e+00 8.4862046654199130e-01 0 0 1
575 1 5.0590050917039102e+00 1.2897025874680910e+00 3.3123145721727352e+00 0 0 0
722 1 5.4886255024316490e+00 1.4646480858906297e+00 1.8035499173944944e+00 0 1 0
1147 1 5.8146300024669326e+00 8.8991892664333494e-01 2.7018263855695288e+00 0 0 1
1351 1 6.5417213905521061e+00 1.2970600461097241e+00 1.9990949829831266e+00 0 1 0
3775 2 6.9822656744114857e+00 1.6727781874820145e+00 2.7515172187330439e+00 0 1 0
2754 1 9.7086658904926058e+00 5.6337311870135531e-01 2.9797090501169698e+00 0 1 0
56 1 3.2028810392834837e+00 1.6179374807912961e+00 2.0004599207526074e-02 0 0 0
3503 2 7.5350870365369778e+00 2.6869569400579030e+00 3.7869752788661790e+00 -1 0 2
1484 1 6.4798315655620753e+00 2.7379862856282206e-01 1.9765911107816487e+00 0 0 0
1684 1 1.0394121519848785e+01 4.4183742779427115e+00 3.2814762857551760e+00 0 0 0
2538 1 9.7761595547695777e+00 2.3276770275907270e+00 9.9140325851505673e-01 0 0 0
1622 1 7.7845345202426239e+00 4.5699354958785703e+00 3.5754221002715005e+00 0 0 0
1117 1 3.6931521444219868e+00 3.9044784655309006e+00 2.4235333790483898e-01 0 0 1
558 1 8.9065185644740907e-01 1.9313520470475822e+00 1.9823337432308961e+00 0 0 0
1965 1 8.7528633414683199e+00 2.4901250219130446e+00 1.5460447426279040e+00 0 0 0
1455 1 8.4026085388915135e+00 1.3030863927661762e-01 2.9918746031638328e+00 0 0 0
166 1 1.0526087154736818e+00 1.6311229689154940e+00 3.0987831211180370e+00 0 0 0
1376 1 1.8896187351591460e+00 1.6382040518165031e+00 2.4937872836854886e+00 0 1 0
3606 2 1.6624621905719399e+00 2.4879091376428080e+00 2.3256662068216585e+00 0 0 0
2941 1 2.5030515822270516e+00 2.6552347152141698e+00 2.3705353327542813e+00 1 0 0
3608 2 2.6562548339194265e+00 1.8963355759873619e+00 2.8745204489549949e+00 0 0 0
3128 1 1.7971043891549270e+00 2.5374567582564791e+00 3.1721416400458455e+00 1 0 0
555 1 2.8395903948004468e+00 1.6872407943370826e+00 2.0257474709302712e+00 0 0 0
505 1 4.0130679266632274e+00 2.6537994888126186e+00 1.7409571433085511e+00 0 0 0
663 1 3.6208636268714254e+00 2.2100553072653284e+00 2.6747608433965668e+00 0 0 0
3686 2 3.2291716364691765e+00 3.2603427307499837e+00 1.9289499518729543e+00 0 1 0
1446 1 4.3346163847948587e+00 3.0056761166753159e+00 2.7039787106242850e+00 0 0 0
568 1 4.6450120259902459e+00 2.0396383691512052e+00 2.3816175738822865e+00 0 0 0
3703 2 4.6428495873125417e+00 3.2911479644610053e+00 1.7616654366049964e+00 0 0 0
3533 2 5.4216009448699101e+00 1.8981303319743854e+00 2.7360287144090125e+00 0 1 0
1462 1 5.1766521157581362e+00 2.5803565606161083e+00 1.6740963760971883e+00 0 0 0
1511 1 5.3413402259386906e+00 2.8167481251378024e+00 2.7416090782742355e+00 0 0 0
1561 1 5.9524470725574554e+00 3.2899220323508036e+00 1.9921968697377748e+00 0 0 0
2197 1 6.2106878965435728e+00 2.1362689792773395e+00 2.6392286947274641e+00 0 1 0
566 1 6.1450027435446479e+00 2.3400369992746106e+00 1.6381999530844982e+00 0 0 0
1437 1 7.1098058474476460e+00 3.0481093672682564e+00 1.5855159496640574e+00 0 0 0
2101 1 7.1878445019128074e+00 2.2442575587702902e+00 2.1929201587726381e+00 0 0 1
3946 2 6.6654630716196683e+00 2.9235131794173799e+00 2.3215018537120069e+00 0 1 0
1721 1 6.2077466607151877e+00 3.1524620067004370e+00 3.1300079474806162e+00 0 1 0
2421 1 7.3376637933864188e+00 3.0999909212542529e+00 2.9977224096115331e+00 0 0 0
21 1 1.6482911315598803e+00 1.6519851286269402e+00 1.2656368035220894e-01 0 0 0
1076 1 1.0405375819737269e+01 3.2038725158074244e+00 5.9655188203835041e-01 0 0 0
599 1 2.7154073717423102e+00 3.4993768277901632e-01 3.8233453571716476e+00 0 0 0
991 1 7.6969808381248379e+00 1.4149267473274467e+00 2.4504305643528457e+00 0 0 0
2145 1 9.0451329612987994e+00 3.3194456484117261e+00 3.2903070077255490e+00 0 0 0
1689 1 8.8787539373431947e+00 3.4803166896648405e+00 4.3941874411440818e+00 0 0 0
615 1 1.1410977865749650e+00 3.0046296371967691e+00 1.7209133243807107e+00 0 0 1
987 1 5.3374125636622018e+00 1.7739381316051794e+00 1.2529909511339773e-01 0 0 0
2176 1 9.0139619513687705e+00 5.8393717546588952e-01 3.7645336843997561e+00 0 1 0
4056 2 1.0572472340776075e+01 3.6228873405864421e+00 3.1760030848200342e+00 0 0 0
975 1 8.7703184023628040e+00 2.0143742222963654e+00 4.7707036622234194e+00 0 0 0
1682 1 6.9489254327454315e+00 3.8443007181602051e+00 3.6631345389572076e+00 0 0 0
1039 1 2.7157441122165524e+00 3.9988577460172556e+00 2.1380597782805513e+00 0 0 0
4238 2 1.5903203671262500e+00 3.9152486161030708e+00 1.7116300820013883e+00 1 0 0
3619 2 2.4413607186527289e+00 3.2765831270394234e+00 2.9909071583236924e+00 0 0 1
586 1 1.7406573645251506e+00 3.4129069949164301e+00 2.4902145497757111e+00 0 0 0
1022 1 2.3343605774812985e+00 4.0987869547497429e+00 3.1483832597308878e+00 0 0 -1
1160 1 7.6427957732673582e+00 1.3796375177795477e+00 1.3448966976389602e+00 0 0 0
1440 1 3.3155011683463140e+00 3.2872244635003156e+00 2.7798729188271203e+00 0 0 0
664 1 3.9260977968786870e+00 3.7256719694140710e+00 2.0504830379978038e+00 0 0 0
3040 1 2.7125585787022182e+00 4.2951116879674451e+00 3.1843602378507463e-01 1 0 0
3121 1 8.3995564950321935e+00 4.4633261397589017e+00 4.3928303527020365e+00 0 0 0
994 1 4.2043032359516816e+00 3.9639275339840636e+00 3.0788797239814749e+00 0 0 0
1428 1 5.8051651291954380e+00 4.3261515389570899e+00 1.7192967916035926e+00 0 0 0
1472 1 8.5696965770242173e+00 4.3371709370263378e+00 1.9897039463975590e+00 0 0 0
534 1 5.9443570151398744e+00 4.0943842766997420e+00 3.0754945183354252e+00 0 0 0
1271 1 5.1143395417149478e+00 3.8485941590776322e+00 2.4647121216635330e+00 0 1 0
952 1 7.7869386004197025e+00 2.3700677760902940e+00 1.1159008221882827e+00 0 0 0
3838 2 6.3007638130223178e+00 4.4985628924976639e+00 3.7992901174077263e+00 0 0 0
2946 1 8.2077908755109270e+00 4.9276090442274195e-01 9.3712817625933986e-01 0 0 0
1072 1 7.6029633186311241e+00 3.8686726689034616e+00 2.0402946172854115e+00 0 0 0
1535 1 6.7253548017764775e+00 3.8621801270401401e+00 2.4393808789711908e+00 0 0 0
3964 2 7.4815887760745561e+00 4.0601984545079510e+00 2.9120893977078279e+00 0 1 0
3127 1 2.3168811982332151e+00 3.3238653843802846e+00 3.9625637421832072e+00 1 0 0
3602 2 6.7892873583858879e+00 6.1228402232223078e-01 3.6976569799916565e+00 0 0 0
964 1 9.6514632606549515e+00 4.1556199957842681e+00 1.7105393020548434e+00 0 0 0
1425 1 7.9312137435933154e+00 3.4853223247619760e+00 3.9230271500334100e+00 0 1 0
574 1 2.9007372723725426e+00 4.0783247623497338e+00 4.6536500323498791e+00 0 0 0
3985 2 7.7496758929552065e+00 7.2372895998601816e-01 2.9377433068495034e+00 0 0 0
3460 2 8.2273716672826254e+00 2.9772106861724992e+00 3.1073412507028015e+00 -1 0 0
962 1 1.8256102898339170e+00 4.4953220033397479e+00 2.2710403048493011e+00 0 0 0
1906 1 6.3405391422406803e+00 7.9166974746417240e-01 4.3976201609001295e+00 0 1 0
3587 2 6.9374184836519559e+00 4.6523961429840703e+00 2.2539207561133807e+00 0 0 0
1073 1 6.2019668539137092e+00 1.4888236337985045e-01 3.3438642011822983e+00 0 0 0
3676 2 7.9329413346591844e+00 1.9983025322759389e+00 1.8936694527979256e+00 0 1 1
751 1 4.1954913716736080e+00 3.0194474415328965e-01 3.1487867621437382e+00 0 1 0
1584 1 9.8461871356507014e-01 4.3354958043287878e-01 3.8609147051285810e+00 0 0 0
1818 1 5.2188305467412430e+00 1.5035484873715588e-01 3.0329710682416318e+00 0 1 1
652 1 1.9292725041875685e+00 7.2124999831900194e-01 4.2401711568097697e+00 0 0 0
1439 1 1.0560592565059661e+01 3.9391058511918779e+00 2.3123070518749231e+00 0 0 0
1621 1 6.8744804588383133e+00 4.7744954425093686e+00 3.1550917331090260e+00 0 0 0
4264 2 3.3624304425757257e+00 4.5288868679125155e-01 3.2546871910241002e+00 1 0 1
1054 1 3.7674904500033106e+00 7.6935007670112865e-01 3.9488837862041901e+00 0 0 0
481 1 3.1795795681242112e+00 1.6093249187185594e+00 3.6937315782145039e+00 0 0 0
235 1 4.3276785444586636e+00 1.5960480766568534e+00 4.0483198663614877e+00 0 0 0
4242 2 9.3977196130149654e+00 1.7374785767959833e+00 1.5700958551330415e+00 0 0 1
3856 2 5.7158978540552079e+00 7.3478002463846492e-01 3.6670499581335321e+00 0 0 0
2360 1 5.5077426920043306e+00 1.4408614990604041e+00 4.2430805383986732e+00 0 1 0
30 1 5.4536501520539131e+00 4.1618376837770015e+00 4.0278000339976066e+00 0 0 0
1457 1 8.7032220176540580e+00 4.7023487542392832e+00 3.0238251832037526e+00 0 0 0
1950 1 7.4547337059133296e+00 1.1982976666077940e+00 3.5612759289535068e+00 0 0 0
4029 2 6.7771981569411786e+00 1.5498809295827904e+00 4.2777936493353153e+00 0 1 0
580 1 6.3542341561756155e+00 1.3291774595525194e+00 3.4889392488148108e+00 0 0 0
878 1 7.3881231072310252e+00 5.8833751408909851e-01 4.4272937492030318e+00 0 1 0
1103 1 8.2132037502792592e+00 1.2331883117898652e+00 4.2970850343634082e+00 0 0 0
2120 1 1.0593007800084898e+01 2.8398563087429336e+00 4.4622102916023891e+00 0 0 0
3588 2 1.6769776366572668e+00 3.6782286854480604e+00 3.5364385277724071e+00 0 0 0
550 1 3.3314645110565002e+00 4.4793430474024163e+00 2.8240368520007424e+00 0 0 0
1519 1 8.7031894993948331e+00 1.6593803985060682e+00 2.0959271126899819e+00 0 0 0
1711 1 8.3505824306937129e+00 3.4823881483754495e+00 2.9643760262492269e-01 0 1 0
559 1 1.9190298743032828e+00 4.2061990783846719e+00 4.2240622664185672e+00 0 0 0
2544 1 1.0287630708036492e+01 4.3639493515911951e+00 4.4392225022156477e+00 0 0 0
691 1 2.7404680358554314e+00 4.7628619194245418e+00 3.8979846435439351e+00 0 0 0
2340 1 8.8605593222224890e+00 7.4427030776984837e-01 1.4043447848218976e-01 0 1 1
2108 1 6.3640594679095486e+00 4.0096400995392596e+00 4.5684495441174047e+00 0 0 0
1359 1 6.8859098045210789e+00 1.4297894871848524e+00 1.6006226580643249e-01 0 1 1
2063 1 9.5524532121104393e+00 4.0887838118726227e+00 2.7389712414327674e+00 0 0 0
543 1 1.1256101664785692e+00 1.6386677768460014e+00 4.1405537829624688e+00 0 0 0
1165 1 2.0670201998112709e+00 1.6185389197065532e+00 3.6417754920266718e+00 0 0 0
802 1 1.8242761964968524e+00 2.4883808710703752e+00 4.1852707973347476e+00 0 1 0
572 1 2.8119383411157806e+00 2.5566434909432489e+00 3.4985523837657535e+00 0 0 0
1988 1 1.0120101959005787e+01 3.2340941776961536e+00 1.6107567676000876e+00 0 0 0
2631 1 9.9519243637809751e+00 3.2026790714184630e+00 2.7733080634502110e+00 0 0 0
3719 2 2.8820205587201997e+00 2.8349211047535525e+00 4.3242485293699904e+00 0 0 -1
4119 2 3.8164875817759665e+00 2.2006625544680998e+00 3.5330352879098781e+00 0 0 0
1007 1 3.6936448743676742e+00 2.3827655812154984e+00 4.3390615911512729e+00 0 0 0
2164 1 3.9458215568981680e+00 3.0406899769690661e+00 3.6076284477037861e+00 0 0 1
3884 2 4.4494572879328409e+00 3.0781749616000122e+00 4.2560444665654202e+00 0 0 1
1062 1 4.6623675424586413e+00 2.3197740850321704e+00 3.3827549058752822e+00 0 0 0
1194 1 5.6817665179440873e+00 2.2478273667211410e+00 3.5211899030808591e+00 0 1 0
814 1 5.0704607971759357e+00 2.3968141803208129e+00 4.3984872352400579e+00 0 1 0
1081 1 5.0048834154667414e+00 3.3792517662804009e+00 3.5463309338571416e+00 0 0 1
860 1 5.9501748668039163e+00 3.1002645202450809e+00 4.1665901807633698e+00 0 1 1
1963 1 8.0040013152768807e+00 2.9297871687663317e+00 4.8001440606004664e+00 0 0 0
1678 1 8.3202953306658696e+00 3.7906138140307801e+00 2.7776901697445897e+00 0 0 1
1071 1 6.2815411691495671e+00 2.1229665755786584e+00 4.6413464136061284e+00 0 0 -1
1573 1 6.7541502915077984e+00 2.2858880694003294e+00 3.6948222778381141e+00 0 0 0
537 1 7.0163294305207868e+00 3.0441144222627829e+00 4.3912955433954659e+00 0 0 0
3631 2 2.9204629983438943e+00 4.7483258083568689e+00 1.1630054940873729e+00 0 0 1
4041 2 8.1363330056577006e+00 4.9365062128788473e-01 3.8052745474173024e+00 0 1 0
2513 1 8.7577069692443299e+00 1.4344476756955740e+00 1.0534978698352235e+00 0 0 0
386 1 4.8145167782140854e+00 6.3398788002322781e-01 4.0667854572259197e+00 0 1 0
1696 1 7.0231388244714923e+00 4.7738707977834238e+00 4.2424491035079228e+00 0 0 0
1358 1 3.2962094857448125e+00 3.4156784541728236e-01 2.3489486967320965e+00 0 1 1
1644 1 7.4817282964008598e+00 3.9778406518485059e+00 4.7777348233244821e+00 0 0 0
50 1 3.5795054315520494e+00 4.6543077474829184e+00 1.7138541676307246e+00 0 0 0
3688 2 2.0486606140832491e+00 3.5805133203384214e+00 4.7824976840777316e+00 0 1 0
976 1 5.6358547525902889e+00 3.3871184131177533e-02 4.1916142852048850e+00 0 0 0
232 1 1.2562278157274722e+00 3.4369089160562045e+00 4.2625087854068866e+00 0 0 0
1880 1 7.7904053484927012e+00 4.7507016903773813e+00 2.5651498041867171e+00 0 0 0
3464 2 1.9312090579435226e+00 3.8865187166951268e-02 3.7669011197194355e+00 0 0 -1
733 1 4.1454030350516566e+00 3.0400384898127522e+00 1.4484028277118722e-02 0 1 0
1491 1 3.1836582566349678e+00 3.6083833305221041e-01 4.8225125168065306e+00 0 0 -1
2522 1 1.0197384615545779e+01 4.6119313584571602e+00 6.7899314372902655e+00 0 0 0
370 1 1.6901325257634072e+00 8.7177544368701820e-01 8.2781494237236188e+00 0 1 0
186 1 4.3521216511173453e+00 4.1898918668404059e+00 8.3447869909878083e+00 0 0 0
1634 1 8.2177487572799137e+00 4.0324089892400652e+00 7.4983849018908471e+00 0 0 0
971 1 9.1332069246194472e+00 3.9178091880640613e+00 9.4475271591378593e+00 0 0 -1
4231 2 4.2925961535040305e+00 4.5998644256174810e+00 6.7390452746150187e+00 1 0 0
4000 2 1.6512871281321539e+00 4.6461260394795376e+00 6.7547142138274108e+00 0 0 0
1129 1 1.0019311638745602e+01 3.9204881287306348e+00 7.5059210343003588e+00 0 0 0
3364 1 8.1931662673515202e+00 2.5818149642527566e-01 6.1783446197952081e+00 0 1 0
1184 1 6.0767800932365823e+00 4.5847325729406823e+00 6.2086424056678080e+00 0 0 0
1402 1 5.0248182776840364e+00 1.1075232467121011e-01 9.6507732723575685e+00 0 1 0
706 1 5.4792117963607978e-01 5.2000220871317093e-01 5.7129729850859343e+00 0 0 0
538 1 5.8775181950628150e+00 1.2882603059024836e-01 6.5120384452671338e+00 0 0 -1
818 1 2.0523931085090190e+00 1.3388075957235152e-01 9.6224553512925350e+00 0 1 -1
1482 1 2.6634431528899363e+00 3.1066060503806234e+00 5.1260535661659024e+00 0 0 0
913 1 2.3349129321825344e+00 1.3172830049550028e+00 6.1064303369630055e+00 0 1 0
3924 2 7.6227872895686062e+00 2.6371631693257502e-01 8.7274142952997256e+00 0 1 -2
1132 1 4.2116694244114923e+00 1.1410504119133372e-01 4.8889024339030653e+00 0 0 0
3611 2 4.1779720707189867e+00 6.6491279909133671e-01 5.5543815635562357e+00 0 0 1
3752 2 2.9763160210392421e+00 1.6620370559368582e+00 5.4496453212533726e+00 0 0 0
526 1 3.3430926662749432e+00 9.4262855320815209e-01 5.7397217510296743e+00 0 0 -1
1080 1 4.2054269384156280e+00 1.5063444549415359e+00 5.8372396945083569e+00 0 0 0
4122 2 6.0141937748190761e+00 1.3546566029819604e+00 5.0215430176767457e+00 0 0 0
3546 2 9.8522206487773296e+00 3.2735664936739530e+00 5.6879431258968660e+00 0 1 0
3598 2 4.9419098361676497e+00 2.5175275371093042e-01 6.8866443281282193e+00 0 0 0
1498 1 4.1814636563549401e+00 7.0605872992316887e-01 6.4540858399380721e+00 0 0 0
1683 1 5.2095970345560101e+00 9.9700501809533149e-01 6.5856498153888827e+00 0 0 0
1199 1 5.2745015979116863e+00 1.8550868297964767e+00 5.2222003592516026e+00 0 1 0
4081 2 4.3568825883836766e+00 3.8830533811096468e+00 9.3228544454230722e+00 0 0 -1
3584 2 1.5133038608053049e+00 9.1661575304970089e-01 9.2825660972526034e+00 0 0 0
1349 1 6.0730391832321073e+00 9.7313752349245353e-01 5.8526892791544043e+00 0 1 0
889 1 6.9298339516943530e+00 1.3474238858742020e+00 5.1258121010120892e+00 0 1 0
2044 1 6.8548139586896450e+00 2.7747347120778132e-01 5.1884587152007660e+00 0 0 0
1654 1 7.0718077158646020e+00 1.6878728356712924e+00 6.1669757490760340e+00 0 0 0
1907 1 7.2213949207200629e+00 6.2850019997410278e-01 6.3939405872164414e+00 0 1 0
1099 1 2.4298727527310189e+00 4.3061322312035886e+00 6.5277234884461874e+00 0 0 0
4175 2 9.3140590876405600e+00 1.8246998338370832e+00 7.7730996639900338e+00 0 1 0
610 1 1.6208678104452137e+00 1.8396320915704671e+00 5.0188000965245267e+00 0 0 0
1955 1 8.2761210508612564e+00 4.1355992399023975e+00 6.4593798378974725e+00 0 0 0
1549 1 9.6584757851518575e+00 1.5044097963267846e+00 4.9803376012203886e+00 0 0 0
3839 2 9.6054367458803345e+00 9.8549311608010393e-02 8.1424833969076325e+00 0 0 0
3881 2 9.4620829126197883e+00 3.4184352767840518e+00 8.8216072583979734e+00 0 0 0
695 1 1.1302473604126366e+00 1.3966372316353031e+00 5.9463397037564008e+00 0 0 0
1407 1 9.4444528417486460e+00 2.5097296168158745e+00 8.6640591407023582e+00 0 1 0
2753 1 9.5618625727172422e+00 1.0133990103485566e+00 7.6777956390311495e+00 0 1 0
4302 2 1.1524340470313006e+00 2.3030720490932817e+00 5.6308894466693431e+00 1 1 0
1180 1 2.3335097921471482e+00 2.2334727022415013e+00 5.6469359632911447e+00 0 0 0
4123 2 1.0814168926127572e+01 3.9522558269089707e+00 7.0430059714126942e+00 0 0 -1
4220 2 7.9668565983546742e+00 2.1420018211918146e+00 7.3284596283884440e+00 0 0 -1
675 1 2.1057088275495408e+00 3.2575152759990549e+00 6.1622402169640988e+00 0 0 0
676 1 1.6256150949247790e+00 2.8932687816022762e+00 5.1645437227556688e+00 0 0 0
1114 1 3.4455815243258492e+00 2.3969713802290347e+00 5.3736799263266519e+00 0 0 0
1187 1 4.1845680753333969e+00 2.4790176948896114e+00 6.0975163054827766e+00 0 0 0
659 1 3.0779642944020988e+00 3.0583106898223500e+00 6.0794181823088751e+00 0 0 0
3713 2 3.8147643321962414e+00 3.2590356136582339e+00 5.5336035281718852e+00 0 0 0
698 1 3.1486454720723906e+00 1.9078972961368568e+00 6.2847547319390165e+00 0 0 0
1177 1 4.4603250388392750e+00 2.7628178367899228e+00 5.1484096454047261e+00 0 0 0
1853 1 5.2053239972921954e+00 2.0051939967812182e+00 6.2328702163340619e+00 0 1 1
3123 1 5.0886407575343267e+00 3.1482462595511871e+00 6.0236665402653546e+00 1 0 0
3577 2 5.7913607010639474e+00 2.6753437573046455e+00 6.0786763693633317e+00 0 0 -1
2060 1 9.5402976045893837e+00 2.8008508646891919e+00 6.4085613463236966e+00 0 0 0
1647 1 6.2145334974228810e+00 1.9688354870014291e+00 5.7225048773014544e+00 0 0 0
1049 1 7.0155786060682388e+00 2.5129426924118219e+00 5.3085517064618974e+00 0 0 0
2196 1 7.5476145246596840e+00 3.3306708247311398e+00 5.8041935734353647e+00 0 1 -1
1153 1 6.6925149687001717e+00 2.6903709369977311e+00 6.2701218532114114e+00 0 0 0
1171 1 8.4901827162885830e+00 3.8046311392729515e+00 5.3362137018079281e+00 0 0 0
1676 1 5.7439137060216341e+00 2.8230360722504679e+00 5.2724804835496792e+00 0 0 0
2084 1 8.0925375238343271e+00 4.4737636591818459e+00 9.6234482854149999e+00 0 0 0
1188 1 7.3615112649154906e+00 4.5159827180956489e+00 8.9782295850054119e+00 0 0 0
227 1 3.6090912715931522e+00 3.5768092832897258e+00 8.8821029077911877e+00 0 0 0
2042 1 9.4968063333101043e+00 1.1280859773864300e+00 6.0582859927084955e+00 0 0 0
4312 2 1.1673933832354557e+00 2.2363806705438258e+00 9.4287589070680635e+00 1 1 0
348 1 3.7601266160130564e-01 7.1178688966470660e-01 7.8154311974492643e+00 0 1 -1
3728 2 9.2075944480123457e+00 4.3181518455140893e+00 7.6426108726662978e+00 0 0 0
784 1 7.4473821176513342e+00 1.4597727425701787e+00 7.1257978803185846e+00 0 1 0
601 1 2.2736546406170874e+00 4.0833487619941957e+00 5.4808631974515212e+00 0 0 0
1093 1 3.3378261430787854e+00 3.9334209900498860e+00 5.6244510899551203e+00 0 0 0
3787 2 6.4853701882797115e+00 3.9953011051102116e+00 7.0119410374341555e+00 0 0 0
2088 1 4.3909789189058399e+00 3.8308501556811607e+00 5.3678776769326086e+00 0 0 0
127 1 4.0382265250187732e+00 3.4736024411588882e+00 6.3392358185935356e+00 0 0 0
3749 2 7.7291606475243544e+00 3.9909172802323352e+00 8.3363558762676124e+00 0 0 0
1085 1 5.6002817447030004e+00 4.0138632174520810e+00 5.4176097497561537e+00 0 0 0
3016 1 5.0005515446094080e+00 4.1516218858106519e+00 6.2457837277746915e+00 1 0 0
2546 1 9.1792346111054428e+00 4.6330992439250176e+00 6.8430503640142897e+00 0 0 -1
1030 1 6.5476222342590589e+00 3.4330287508270190e+00 5.4989062959517172e+00 0 0 0
3386 1 5.1725834004878313e-01 2.4761552969709408e-01 6.8195584104589955e+00 1 1 0
1115 1 7.0801235798418549e+00 4.0854873191974095e+00 6.3527689964548300e+00 0 0 0
1635 1 8.9598612289479380e+00 1.9975837588324461e+00 5.9104958015657099e+00 0 0 0
2161 1 9.0608152907217114e+00 3.6478753198016229e+00 7.0182965327513394e+00 0 0 0
1694 1 9.3228065843732022e+00 4.3589802833708848e+00 4.9953679793024461e+00 0 0 0
624 1 6.2300683202798224e+00 2.3513644606733197e+00 9.3712011755702047e+00 0 0 0
323 1 1.8421077920790367e+00 2.6816047613764251e+00 9.4778558622479725e+00 0 1 -1
3961 2 3.3386348845132776e+00 4.3763248438149445e+00 9.2762280155256001e+00 0 0 0
621 1 4.8672992105863546e+00 2.4542190815650983e-01 5.8595187222816536e+00 0 0 0
2043 1 8.7323165822636781e+00 1.9723845537409361e+00 6.9649372952378377e+00 0 0 -1
4064 2 6.3502160101358562e+00 6.0168059101911177e-02 7.5069964285580344e+00 0 1 0
70 1 3.1606283773868977e+00 2.7033102575060473e+00 9.5461425123529349e+00 0 0 -1