LAMMPS data file via write_data, version 12 Dec 2018, timestep = 409200

4320 atoms
2 atom types

0.0000000000000000e+00 1.9309999999999999e+01 xlo xhi
0.0000000000000000e+00 1.9309999999999999e+01 ylo yhi
0.0000000000000000e+00 9.6549999999999994e+00 zlo zhi
-7.3378000000000014e+00 0.0000000000000000e+00 0.0000000000000000e+00 xy xz yz

Masses

1 1
2 1

Atoms # atomic

2838 1 8.4916563735060535e+00 2.0580792957146735e-01 4.2884430265780005e-01 1 1 1
2159 1 7.6234858828372083e+00 4.0761057277541362e+00 3.9784377321269400e+00 0 0 0
976 1 3.7319083144416925e+00 2.6594553642820506e-01 4.4826424243505105e+00 0 0 0
818 1 4.3322199482162715e-01 4.1582007624847878e-01 3.5321966804886445e-01 1 1 0
1621 1 5.2598989868680812e+00 4.6377972583873213e+00 3.1652501274166003e+00 0 0 0
1870 1 6.2129020198793077e+00 1.7185487908292993e+00 5.5490864953669472e-01 1 1 1
4041 2 6.0785033075603483e+00 4.6688995696871965e-01 4.0543573927227827e+00 1 1 0
1493 1 8.5649736044272817e+00 1.7223951624341500e+00 3.8761325419240262e+00 0 0 0
1544 1 6.9664402712319067e+00 2.4755980610811261e+00 6.4437737041410648e-01 0 0 0
3635 2 7.1622852788047604e+00 9.6749168018212472e-01 4.6473510305287808e+00 0 0 1
3500 2 9.1864708205611088e+00 5.5701821766550297e-01 4.3319309962613159e+00 0 0 1
2754 1 7.8613200638030687e+00 2.4260530776966857e-01 3.3121433850785391e+00 1 1 0
3688 2 4.6842217073609915e-01 3.8766836062027630e+00 4.6102667815675460e+00 1 1 0
4148 2 -1.1573775741996850e+00 3.3099780402472851e+00 3.9665300697101324e+00 1 0 0
1127 1 1.4189530851760230e+00 2.6515985490973409e-01 5.4006440789612686e-01 0 0 1
1554 1 1.8720851409414041e+00 1.2004211496729045e+00 7.3948168181709506e-01 0 0 1
4042 2 8.8526229323837835e-01 1.2483489525292650e+00 4.0527192573890458e+00 1 1 0
95 1 3.1303972374753859e+00 2.7280991118617576e-01 1.3577870327898023e+00 0 0 0
1122 1 7.8467757988596913e+00 1.8576067012091657e+00 1.0864029298894223e-01 0 0 0
717 1 -1.8152664173607169e-01 3.7360096687119277e+00 8.1230756533636950e-01 0 0 1
870 1 2.7333857364494611e+00 1.7670295707031736e+00 1.1897505274538811e+00 1 1 1
1798 1 3.2303836383246898e+00 1.1491875996466263e+00 5.8123889078652213e-01 1 1 0
2689 1 7.0670012858118021e+00 2.2509417945159758e+00 2.7381243895280143e+00 0 0 0
906 1 6.3560903653398757e+00 2.7466139455334355e+00 2.1497181509518999e+00 1 1 0
1615 1 4.2684314431004742e+00 1.4163084717936638e+00 8.9794339353945773e-01 0 0 1
3750 2 -8.3521161242369524e-02 1.7630284685375504e+00 1.1747697997607096e+00 0 0 1
1357 1 4.1570233611839305e+00 5.3876229968997302e-01 1.7839267092537421e+00 1 1 1
767 1 5.3254571799703871e+00 1.3650484312897637e+00 1.0128102996429538e+00 1 1 0
586 1 2.4176605365970572e-01 3.5825685232902313e+00 2.3645975981992757e+00 0 0 0
3468 2 5.0788058132184508e+00 2.7769376363634604e+00 6.4605821282237208e-01 -1 0 1
2132 1 7.5060941907404457e+00 1.4065819879849284e+00 3.8478180330360967e+00 0 0 0
4208 2 -5.4272524367149910e-01 2.9663735543608891e+00 4.5364988438109739e+00 1 0 0
1671 1 7.3162620994850878e+00 4.1849660868102170e+00 9.1940129733749132e-01 0 0 1
3771 2 6.8412038631795928e+00 3.7202279208679037e+00 3.7247389229717718e+00 1 1 -1
1491 1 9.5236371026866307e-01 6.8738464355894746e-01 4.7343370782411807e+00 0 0 -1
4063 2 7.2678168794055402e+00 7.8348017879135379e-01 3.2185173491184118e+00 1 1 1
574 1 1.2983154209399275e+00 4.1707876135251443e+00 4.6347544183454810e+00 0 0 0
1165 1 3.9608336755877238e-01 1.9653411287158811e+00 3.6736962516230860e+00 0 0 0
2201 1 6.3245481432913611e+00 4.3294793322721175e+00 1.0085878316050734e+00 1 1 0
1359 1 4.8906778024068229e+00 8.4106328422494125e-01 2.2823291334817067e-01 1 1 1
1499 1 5.2812549426757460e+00 1.9333411317902260e+00 1.6889306230929069e-01 0 0 1
537 1 5.1287956960812897e+00 2.7881594628076911e+00 4.4718484713171094e+00 0 0 0
34 1 8.5240410788132226e-01 2.5452867766394114e+00 5.6217386623380838e-01 0 0 0
1073 1 4.2984305814989545e+00 1.3389764069233484e-01 3.5174864145995177e+00 0 0 0
968 1 2.0000846978002969e+00 2.4278615804744246e+00 6.4469878416942428e-01 0 0 1
3708 2 1.2803008845316917e+00 1.8935501077120702e+00 8.7477057102809008e-01 0 0 0
1166 1 1.5116317212875379e+00 3.0317288245991958e+00 1.3282851559196376e+00 0 0 1
3768 2 1.7811993423705981e+00 3.3316964549624091e+00 5.0351268980234209e-01 1 1 0
1651 1 5.3374113394839631e+00 4.5276327621857557e-02 3.7613746614691919e+00 0 0 1
3757 2 3.6172211193029731e+00 1.9747237868211440e+00 1.0189847138083230e+00 0 0 1
1764 1 3.0898939295120567e+00 2.6240663269296931e+00 7.0850840626120648e-01 1 1 0
1617 1 4.1209301210665252e+00 2.6795177139179671e+00 7.0917948168869993e-01 0 0 1
1785 1 5.0612610597335967e+00 5.0559000843251767e-01 2.7299162326782631e+00 1 1 0
2850 1 8.0498311758575731e+00 2.3781259446942737e+00 2.2494763891842173e+00 1 1 0
21 1 -1.8999346503571957e-01 1.9279545954735136e+00 6.0463463264510540e-02 0 0 0
1505 1 1.7460053497072090e+00 4.0475076024006631e+00 3.7714738670733716e+00 0 0 0
1667 1 7.7701913175834907e+00 6.4377347373966609e-01 1.7680293123093536e+00 0 0 1
3587 2 5.5214040333953713e+00 4.8003481742420586e+00 2.2711732934485096e+00 0 0 0
2076 1 6.0594057093462546e+00 2.2775275499722416e+00 3.1032385199765340e+00 0 0 1
1573 1 4.9827653915955876e+00 2.0140633686256346e+00 3.5960584073985991e+00 0 0 0
1071 1 4.2568284835838499e+00 2.1537282165067104e+00 4.4853958430245378e+00 0 0 -1
1897 1 6.1629580729572702e+00 3.7120974802825307e-01 2.0713176446735102e+00 1 1 1
1029 1 3.9256651342235509e+00 4.6815917263456747e-01 7.7188442345780861e-01 0 0 0
1358 1 2.2051107391609732e+00 9.2149568950813798e-01 1.7057962570395058e+00 1 1 1
1678 1 6.7121599741943472e+00 3.8192454424615918e+00 2.8099757140875652e+00 0 0 1
1489 1 8.0281728127432963e+00 2.3275236910442092e+00 3.2860085392473701e+00 0 0 0
860 1 4.2526975211219291e+00 2.9262327985010979e+00 3.7785215024417593e+00 1 1 1
4263 2 3.7763063351136008e+00 4.6706554100654758e+00 2.0959117184235869e+00 1 0 0
1538 1 6.6065296737584278e+00 1.3540262853495153e+00 3.2855062638622554e+00 0 0 0
1081 1 3.3583934830319393e+00 3.4013463097382366e+00 3.5052679432323477e+00 0 0 1
124 1 2.7525567216833964e+00 4.0111558048065614e+00 4.2623671040262501e+00 0 0 0
3764 2 5.7575281353884833e+00 8.4574466421611716e-01 1.5464750373777494e+00 1 1 -1
1019 1 2.6128487540324183e+00 3.5052548830613866e+00 9.5273574934122973e-01 0 0 0
1198 1 1.6868703836074648e+00 4.0559909018764388e+00 1.0877223443271979e+00 1 1 0
3627 2 2.5165106503908454e+00 4.3550804986285305e+00 7.5878119540262545e-01 0 0 1
814 1 3.3681231332299841e+00 2.4135947523385810e+00 4.1196879811267983e+00 1 1 0
1194 1 3.9046037361976436e+00 1.7889725356523960e+00 3.4969717290871407e+00 1 1 0
567 1 3.6447972761955345e+00 3.5244826335407482e+00 1.0446537905084663e+00 0 0 0
669 1 3.1816806096092121e+00 4.3799923265407656e+00 1.3230472580255939e+00 0 0 1
1062 1 2.7627173528832949e+00 2.1701916648252730e+00 3.2781002320323602e+00 0 0 0
1051 1 3.1530020777248713e+00 4.0824058771516851e+00 2.1152720583906157e-01 0 0 0
3884 2 2.8028723228526209e+00 3.1441142988766084e+00 4.2977201720879643e+00 0 0 1
1858 1 5.8749897873701027e+00 2.1682818630012872e+00 4.0874291281814923e+00 1 1 0
2164 1 2.3627923573579697e+00 3.1855728576797802e+00 3.5336515041757539e+00 0 0 1
503 1 5.7154447756884394e+00 3.4480310869949697e+00 7.3296171785405084e-01 0 0 0
1506 1 4.7283917469657482e+00 3.4096236334435432e+00 1.0868330150756860e+00 0 0 0
1564 1 5.3891874145510723e+00 4.2782722032480862e+00 1.6075313630595428e-01 0 0 1
1572 1 5.2978861440029572e+00 4.3075913322462007e+00 1.3573128142762825e+00 0 0 1
1818 1 3.2577354036309476e+00 1.9890450383843786e-01 3.3858678112571057e+00 1 1 1
253 1 4.8399701180604843e-01 1.5694016339585476e-01 1.2783418333077587e+00 1 1 0
1007 1 2.3149227183107883e+00 2.3995326593007626e+00 4.3543397923000153e+00 0 0 0
1470 1 6.7078481765694731e+00 3.3656531862189145e+00 1.3475316247511608e+00 0 0 0
1167 1 1.2846353346619337e+00 2.3143587085115334e+00 4.3107688909608273e+00 0 0 0
1485 1 7.8837667041933175e+00 1.2417059086619209e+00 2.7856393205367080e+00 0 0 0
4119 2 2.0342584229199914e+00 2.3525438375038203e+00 3.5611988614840073e+00 0 0 0
3719 2 1.5249934396043883e+00 3.0782967997521995e+00 4.1559642180930521e+00 0 0 -1
572 1 1.3729287230881131e+00 2.8288067394091123e+00 3.3219809867160217e+00 0 0 0
2250 1 6.8567694325225350e+00 2.3879656411569679e+00 3.7617258418057626e+00 1 1 0
2145 1 7.4205172924835381e+00 3.1731504010492260e+00 3.2882839139760698e+00 0 0 0
975 1 6.8925058756539013e+00 2.0403418437760270e+00 4.7222242013014641e+00 0 0 0
1689 1 7.1566694304725820e+00 3.1155345842749078e+00 4.4484298559153848e+00 0 0 0
159 1 1.4043504608601052e+00 4.3501223685720214e-01 2.3037538591112390e+00 0 0 0
1042 1 -6.7513991183204913e-01 4.5932778396221066e+00 3.1693504242712039e-01 0 0 0
559 1 4.9050560200047855e-01 4.5051484037093692e+00 4.0235639065075306e+00 0 0 0
1134 1 1.1585228888289958e+00 1.6271300591112512e+00 2.3388961206049643e+00 0 0 1
1040 1 1.7460770417661446e+00 1.9693586244291341e+00 1.6282704341199208e+00 0 0 0
2513 1 7.2532108595032749e+00 1.4102737024681866e+00 1.0660100654684175e+00 0 0 0
1783 1 3.1591943013645820e+00 1.0433003262931755e+00 2.1148247042922965e+00 1 1 0
3878 2 3.6289124912245163e+00 1.0640737627354440e+00 1.3369740681832234e+00 0 0 1
631 1 2.1416919720988599e+00 1.3999786162012342e+00 2.7016552853200291e+00 0 0 0
3756 2 4.7718440641838544e+00 6.7801731644126795e-01 1.0788921967688732e+00 0 0 1
987 1 3.6287332056705415e+00 1.9613602062643047e+00 3.8783145382417041e-02 0 0 0
575 1 3.0242969302892053e+00 1.2116403638792361e+00 3.2154242298658366e+00 0 0 0
722 1 3.8867625485128365e+00 1.7412220097570816e+00 1.8509199887637580e+00 1 1 0
1147 1 4.0111623585869411e+00 9.0807345825093377e-01 2.7594893609296882e+00 0 0 1
1351 1 4.9618832696683652e+00 1.2696807705479025e+00 1.9833220132273390e+00 1 1 0
3775 2 4.7731693716166603e+00 1.1875800931459892e+00 3.1576861333926991e+00 1 1 0
3097 1 7.2154466006046034e+00 1.3259875622311690e-01 2.5102085742834341e+00 0 0 1
1472 1 6.9704296145266422e+00 4.3953819035894952e+00 1.9339739626251209e+00 0 0 0
3503 2 5.3747693582654028e+00 2.8403124616601345e+00 3.5933561729527663e+00 -1 0 2
602 1 -4.8506167025580055e-01 2.1176786385228992e+00 4.6657737901010341e+00 0 0 0
1065 1 5.8906190719255880e-01 2.1772807101104941e+00 1.4860888398275862e+00 0 0 0
1711 1 6.6819511713379223e+00 3.5107981338571022e+00 3.5432497745406505e-01 1 1 0
1622 1 6.0674791559679786e+00 4.2585844560956501e+00 3.6523676584549909e+00 0 0 0
1855 1 5.5369289267311981e+00 3.1181211522858188e-01 8.4524035684764298e-01 1 1 1
1471 1 8.1811166713640322e+00 7.3729419603324475e-01 4.3411662596172409e+00 0 0 0
1965 1 7.1114114041129879e+00 2.1777713118274340e+00 1.7319145972951588e+00 0 0 0
1455 1 6.2120445412994796e+00 2.2200361027412607e-01 3.1404072442396562e+00 0 0 0
636 1 -6.8965022312665114e-01 4.2004742115814615e+00 2.2034989030290792e+00 0 0 1
1519 1 6.8707137659721003e+00 1.2396612985064894e+00 2.3004930207871657e+00 0 0 0
2646 1 8.9221621152053956e+00 1.5143984672459119e+00 2.9177619693571804e+00 0 0 1
2941 1 1.0176794707155659e+00 2.7302025701276240e+00 2.3196962276141981e+00 1 0 0
3608 2 8.6450581694916651e-01 2.2277174311851424e+00 2.9775086132907425e+00 0 0 0
1644 1 5.6902875233808565e+00 3.6496311868506970e+00 4.7278252519741457e+00 0 0 0
555 1 1.2100151552967930e+00 1.0001739008038435e+00 1.4778371470626466e+00 0 0 0
505 1 2.4696206328904089e+00 2.6739544490555525e+00 1.5560811820156251e+00 0 0 0
663 1 1.9683602518453100e+00 2.4147951338529765e+00 2.5290966932519159e+00 0 0 0
3686 2 1.7382858547357216e+00 3.1929034927383482e+00 2.1047877692970385e+00 1 1 0
1446 1 2.7874155904583571e+00 3.1003426117747588e+00 2.5474769451087806e+00 0 0 0
568 1 2.8766397712077807e+00 2.0311383109733692e+00 2.2409353309553905e+00 0 0 0
3703 2 3.0903267662351563e+00 3.4524956220139758e+00 1.7158444956016103e+00 0 0 0
3533 2 3.4979933750256742e+00 1.7373151707629710e+00 2.6832866452945310e+00 1 1 0
1462 1 3.5244874788545708e+00 2.6476756860607185e+00 1.6706666907612737e+00 0 0 0
1511 1 3.6591214070061469e+00 2.5891569989073240e+00 2.7395470397517463e+00 0 0 0
1561 1 4.1986876039813277e+00 3.3806178506414573e+00 1.9987874466463820e+00 0 0 0
2197 1 4.4488871900298212e+00 1.8554762135631340e+00 2.6996670946941888e+00 1 1 0
566 1 4.7039911018457072e+00 2.2951684588113244e+00 1.3961431179835362e+00 0 0 0
1437 1 5.4212299719433190e+00 3.0990568978516193e+00 1.8246652334289546e+00 0 0 0
2101 1 5.4507526312070818e+00 2.1302039913762942e+00 2.2293639553915665e+00 0 0 1
3946 2 4.3177262617655625e+00 2.4745960393713244e+00 2.1050292614266306e+00 1 1 0
1721 1 4.7408929010755330e+00 2.9542153687713220e+00 2.8144894402570748e+00 1 1 0
2421 1 5.7415390977773022e+00 3.2537859410958929e+00 2.8999893173830484e+00 0 0 0
2098 1 4.2486849081607705e+00 3.9571172679221376e+00 4.0977052764916788e-01 0 0 1
1103 1 6.3445935862465674e+00 1.2607305289528132e+00 4.3327048383517441e+00 0 0 0
599 1 6.3030416257321520e-01 1.0926315649140390e+00 3.1627868393978487e+00 0 0 0
991 1 5.8988288255442836e+00 1.2110585021764295e+00 2.5740470046414838e+00 0 0 0
3610 2 -1.3478230784989218e+00 3.9295643707822463e+00 2.7219505732565743e+00 0 0 0
1380 1 5.0805581280408916e+00 1.5386304472839682e-01 1.7569068881229686e+00 1 1 1
1190 1 5.4018972184409597e-01 1.4409972049821647e+00 6.0313936572849614e-01 0 0 1
3918 2 1.0458770046788235e+00 9.9098721232268183e-01 1.2091041604218968e-01 1 1 0
2176 1 6.9713116195222060e+00 4.5533452799367824e-01 3.9314813881996393e+00 1 1 0
878 1 5.4534532318233113e+00 6.5779588568885650e-01 4.5829425389355301e+00 1 1 0
2468 1 7.7718335265514824e+00 3.1519127113958887e+00 1.1794648602814881e+00 0 0 0
1682 1 5.1084668410037875e+00 3.6752314243350783e+00 3.6387872573138944e+00 0 0 0
3865 2 3.7926369972037195e+00 4.5882677498313820e+00 7.0643451722228623e-01 0 0 0
580 1 4.5768151596273476e+00 1.0333021354515919e+00 4.0014782637157511e+00 0 0 0
1950 1 5.5758547749238137e+00 1.0284735387310231e+00 3.6010792369523834e+00 0 0 0
171 1 -1.1492570201610846e+00 3.9838686427862946e+00 1.2968313770732975e+00 0 0 1
1696 1 5.2291623145534647e+00 4.5410867245116755e+00 4.2123275380777399e+00 0 0 0
1160 1 6.1799974907180797e+00 1.6417443754159162e+00 1.6324207017131807e+00 0 0 0
1440 1 1.8673076417276897e+00 3.6730646662490263e+00 2.8249276942332879e+00 0 0 0
664 1 2.3843259684059368e+00 3.8619984239908249e+00 1.9047848181941573e+00 0 0 0
558 1 -5.8428236465914429e-01 1.8491898291362467e+00 1.8842524192479961e+00 0 0 0
3121 1 6.6623990057741143e+00 4.0525874958246817e+00 4.5282737498405981e+00 0 0 0
994 1 2.6875573230556480e+00 4.2167979942051206e+00 3.2516797947418681e+00 0 0 0
1428 1 4.2040876920310835e+00 4.3697089490139609e+00 1.4488276080671521e+00 0 0 0
30 1 3.6317012839316902e+00 4.3599982731731641e+00 3.8210181185526815e+00 0 0 0
534 1 4.2832675686711248e+00 3.9449768653506232e+00 3.0796884909735325e+00 0 0 0
1271 1 3.3792456192494225e+00 3.9375257904014904e+00 2.3798961962539504e+00 1 1 0
952 1 5.7257797439858331e+00 2.4234827822912139e+00 1.0833748938662626e+00 0 0 0
3838 2 4.4927752648707235e+00 4.2708520979521971e+00 3.7983654069986934e+00 0 0 0
2946 1 6.4917630514505413e+00 6.8522335860548755e-01 1.0978186642468630e+00 0 0 0
1072 1 6.0785205285156882e+00 3.9387518449331629e+00 1.9307892396886437e+00 0 0 0
1535 1 5.0801678765073470e+00 3.9658314590183141e+00 2.2850846368352133e+00 0 0 0
3964 2 5.8122928403771645e+00 4.1024987808733986e+00 2.7788065173806711e+00 1 1 0
1979 1 7.3738944341463597e+00 3.2760167049847393e+00 2.2699103913832386e+00 0 0 0
3602 2 4.6533529919175676e+00 3.0401280168935452e-01 4.3595461442314569e+00 0 0 0
2360 1 3.4300975769276598e+00 1.3000630069413008e+00 4.2636330607026443e+00 1 1 0
1425 1 6.1345936313394702e+00 3.1919999958942196e+00 3.9200809019659655e+00 1 1 0
3856 2 3.7588285490186286e+00 8.9715274141064372e-01 3.5586641157352865e+00 0 0 0
386 1 2.6905335258507610e+00 5.0017336664321166e-01 4.2457814423399052e+00 1 1 0
3460 2 6.6051741928574836e+00 2.9472620841546124e+00 3.1191964784250787e+00 -1 0 0
4242 2 7.7023408564350042e+00 1.5585728759966673e+00 1.9501856841143381e+00 0 0 1
235 1 2.3785691484732032e+00 1.4598942686683567e+00 3.9535394206275147e+00 0 0 0
481 1 1.4749242163274663e+00 1.7664270337720325e+00 3.3919730276472602e+00 0 0 0
1054 1 1.6255707110532276e+00 7.3109476842798948e-01 3.9792143271486102e+00 0 0 0
3676 2 6.3113724295227644e+00 1.9313342915873539e+00 2.3730481727115946e+00 1 1 1
751 1 2.2061393409631322e+00 4.4703632394806697e-01 3.0497083120776405e+00 1 1 0
4264 2 1.4917062108594807e+00 9.2035212809146438e-01 3.0312651792779497e+00 1 0 1
2174 1 2.4202169881310169e+00 2.9467955825131392e-01 4.4238528777744579e-01 1 1 0
652 1 1.7547606414446243e-01 6.8408240658230046e-01 3.9747518213017763e+00 0 0 0
4238 2 -1.3301950220423464e-04 3.9360818211282260e+00 1.6150865145120279e+00 1 0 0
3588 2 2.3349635738359353e-01 3.7808590003721729e+00 3.2079401712766331e+00 0 0 0
4267 2 2.0262440536435511e+00 4.7413559623820536e+00 3.2543719625426513e+00 1 0 1
1991 1 8.7596473994567123e+00 5.0813211726241803e-01 2.4070634534908910e+00 0 0 0
2056 1 8.3243308438110653e+00 1.1778184924371859e+00 8.6168490243261220e-01 0 0 1
3619 2 1.0351741791558038e+00 3.4674415843965587e+00 2.8521977454927949e+00 0 0 1
2631 1 8.3269375191872594e+00 3.1968359779741138e+00 2.8999044484835372e+00 0 0 0
2278 1 9.5016596658766233e+00 3.9821796609569365e-01 5.2664652956331237e-01 1 1 1
2330 1 7.5085532633941385e+00 4.7046715082555390e-01 7.0061933399869047e-01 1 1 1
550 1 2.0865390577979914e+00 4.6942221587981781e+00 2.4357457591677418e+00 0 0 0
529 1 -1.9046094050934537e-01 4.5132608142315203e+00 3.1952973793998738e+00 0 0 0
622 1 -2.3311908046540275e-01 2.5781435995270838e+00 9.8501457146963711e-01 0 0 1
1022 1 9.2830201840835591e-01 4.2778090537589097e+00 3.0832027712313037e+00 0 0 -1
1913 1 1.6463275933735217e+00 1.4688534042806547e+00 4.7845753701054043e+00 1 1 0
2677 1 8.8108784285701738e+00 4.6559923703667716e-01 1.3807109794799977e+00 0 0 1
779 1 -1.1575037581973291e+00 4.2569851823607152e+00 3.7224431464141694e+00 0 0 0
656 1 9.1200350901697025e-01 3.5705389381322852e+00 4.8984430406570778e-01 0 0 1
323 1 4.8688879123825801e-02 2.9736815413470081e+00 3.4048022357179339e-02 1 1 0
1018 1 -3.4584793466375197e-01 4.6272058711732633e+00 1.2801660882832850e+00 0 0 0
992 1 -3.3155763117144110e-01 9.7194508897439924e-01 2.6379637458315832e+00 0 0 0
3127 1 7.7871949899823734e-01 3.5338992038822266e+00 3.8680712174039873e+00 1 0 0
177 1 -6.4315852934050588e-01 3.5753964401266702e+00 3.0567947362175509e+00 0 0 0
3799 2 -1.4032390831519996e+00 4.1211456616339674e+00 4.6644420459854768e-01 1 1 0
668 1 5.1294312445607670e-01 3.2330134831595183e+00 1.3931220583279971e+00 0 0 0
1000 1 2.2606692075047552e-01 1.1517066851903968e+00 1.7969651032342897e+00 0 0 0
3599 2 -9.0577017658517334e-01 3.2281458307207074e+00 9.3059175964471774e-01 0 0 0
4250 2 -3.8234007095971356e-01 4.6247423651257087e+00 4.0220705002059001e+00 1 0 1
610 1 4.5327226875686033e-01 1.5817296726603234e+00 4.6607642687368509e+00 0 0 0
962 1 3.7199209364624819e-01 4.6174066376198883e+00 2.2239282761372698e+00 0 0 0
232 1 -2.2179305653987735e-01 3.6606893714383304e+00 4.0378013377807713e+00 0 0 0
1376 1 2.0146194443202248e-01 1.9092749284731696e+00 2.5866389520377071e+00 1 1 0
2081 1 8.2181855945859539e+00 3.2795756280654818e+00 3.9180481538700702e+00 0 0 0
1039 1 1.1416153825572599e+00 3.8697199711094812e+00 2.0099685587518739e+00 0 0 0
964 1 8.0243750498052862e+00 4.1311451070029461e+00 1.7330744254430424e+00 0 0 0
4281 2 8.6277632808992699e+00 2.2560318779247508e+00 4.6201987217265256e-01 1 1 0
2340 1 7.0122904165803943e+00 1.0861043246328121e+00 7.9984302353024353e-02 1 1 1
802 1 3.0834699801789323e-01 2.7257834686931433e+00 4.3111478579348983e+00 1 1 0
2737 1 8.8061781185723884e+00 6.6710256540315716e-01 3.5467779499888308e+00 1 1 0
889 1 5.1985718991718377e+00 1.7121253500520350e+00 4.6802194886186079e+00 1 1 0
1242 1 2.5147654643386943e+00 1.7328262385820976e+00 1.1830034664894072e-01 1 1 0
83 1 -6.5373288277639974e-01 2.6135565132728646e+00 2.6757233972242354e+00 0 0 0
288 1 -6.2933887535368349e-01 2.7007948394581156e+00 3.6801277964327488e+00 1 1 0
3707 2 4.4698139838362545e+00 1.7248090013948800e+00 1.7423877182650545e-02 0 0 0
3040 1 1.1571180323804422e+00 4.5175051217759972e+00 2.0517143569174898e-01 1 0 0
2996 1 6.9333058057667185e-01 4.4953268138788056e+00 1.1715063116680093e+00 1 0 0
2538 1 8.0921979910079145e+00 2.1886828526361404e+00 1.1456069839360021e+00 0 0 0
1441 1 7.7023933384349323e+00 2.9879856115818249e+00 9.8296244604300989e-02 0 0 0
3128 1 2.6999259317390001e-01 2.8968967556699106e+00 3.1127351000871486e+00 1 0 0
548 1 3.6350416959640883e+00 3.4277177323112262e+00 4.4757556430606611e+00 0 0 0
4228 2 4.8251711754932503e-01 5.2332731295962653e-01 2.4337886689867818e+00 1 0 0
4240 2 3.1875549770175282e-01 4.6911460846752551e+00 3.8888499410798044e-01 1 0 0
615 1 -5.2864534567579768e-01 3.1980007317204282e+00 1.7659942439563525e+00 0 0 1
2108 1 4.5854565839537518e+00 3.7511855813910944e+00 4.5367067185600600e+00 0 0 0
3606 2 6.0217810861214582e-02 2.6526140828726219e+00 2.1293214762470720e+00 0 0 0
4133 2 7.0876726856547663e+00 4.8152332788527463e+00 4.3917266803599935e+00 0 0 0
2854 1 7.7907564417003350e+00 2.3530564275703361e+00 4.3412296420899503e+00 1 1 0
2444 1 8.9358265215173009e+00 1.5181168505520903e+00 5.8909659865108516e-02 0 0 0
1457 1 7.0214072029254613e+00 4.6906795966085610e+00 3.4097721599020043e+00 0 0 0
2386 1 8.6326428647214559e+00 1.4474102311822321e+00 1.8521772133173295e+00 1 1 1
2063 1 7.7248392651709077e+00 4.1873000072151250e+00 2.8318485225009029e+00 0 0 0
357 1 9.7268436902538713e-01 1.2899906133393807e-01 3.2987109458462940e+00 1 1 0
1117 1 2.1169779681097882e+00 4.0073269848924538e+00 6.5585422870100718e-02 0 0 1
581 1 -8.6959397996405086e-01 3.5256378617148947e+00 5.9738959733923659e-02 0 0 0
1526 1 2.0923017284932071e+00 3.4267815258231167e+00 4.7433086971903027e+00 0 0 0
628 1 4.1340744138841412e+00 4.8071787380611006e+00 4.6469376867941738e+00 0 0 0
1098 1 6.0287708506647020e+00 2.6252801555452039e+00 6.7723468951179269e-02 0 0 1
3565 2 5.9116300558187795e+00 4.4959561658770379e+00 4.7594753141102535e+00 0 0 0
3584 2 -9.3399957450283233e-02 1.0627119291772933e+00 6.9453235834288432e-02 0 0 1
1531 1 5.9835436557837474e+00 8.2020795673646829e-01 2.0717584445342115e-02 0 0 1
2126 1 8.9817206761929089e+00 1.3865858534964850e+00 4.7237291599788325e+00 0 0 0
56 1 1.4213181916970705e+00 1.7962057991011227e+00 1.5940661344522526e-03 0 0 0
153 1 -1.6481936383276574e-01 4.3723165169567793e+00 4.8230098684193647e+00 0 0 1
1752 1 2.5796350744977046e+00 1.0913054025966602e-01 7.6015199924419141e+00 1 1 0
1984 1 8.3011645152339320e+00 2.3833467040237868e+00 5.4378188290819258e+00 0 0 0
186 1 2.6775925800722375e+00 4.3145572728032215e+00 8.2612932870847207e+00 0 0 0
1634 1 6.5818017150903732e+00 3.9753691035118246e+00 7.6211705955894216e+00 0 0 0
1504 1 4.9795632380390327e+00 4.5069096403487920e+00 5.2020370628567720e+00 0 0 0
3510 2 5.0290439926053736e+00 4.6306520168019718e+00 8.4737685026981673e+00 0 0 0
2039 1 7.6097870585659733e+00 4.7777092819843847e-01 5.1938510716851853e+00 0 0 -1
1099 1 6.1972283540733453e-01 4.6598974083052349e+00 6.6529447811615885e+00 0 0 0
3364 1 6.3932169550922051e+00 2.2385796902019311e-01 6.0341035409093671e+00 1 1 0
1184 1 4.4531597900907762e+00 4.4934027447696927e+00 6.0324918088068600e+00 0 0 0
2473 1 8.3921960119544430e+00 1.0211658967385262e+00 8.4526485080851348e+00 0 0 -1
2114 1 8.9986712170827765e+00 1.3713178706411417e+00 7.5380323284925188e+00 0 0 0
538 1 3.5850740226344198e+00 1.0487642458365340e+00 6.6401309851986898e+00 0 0 -1
4177 2 2.5403311882179249e+00 2.0439564965776067e+00 5.3241341127034758e+00 1 1 0
2071 1 6.0479570172511341e+00 4.8066697767385502e+00 7.0060456022947317e+00 0 0 0
913 1 3.1227832564819336e-01 1.2211515362633867e+00 6.5474299285408080e+00 1 1 0
1681 1 7.3179426773939618e+00 2.5857598799602313e+00 5.4955321530004708e+00 0 0 0
3924 2 4.7302303484056054e+00 1.4156422474762291e+00 7.4608067482854734e+00 1 1 -2
1434 1 1.9374848337443400e+00 2.5225804735110835e-01 8.4583951394157104e+00 0 0 0
3752 2 1.1238536407629274e+00 1.9222254968179642e+00 5.2506702463211283e+00 0 0 0
526 1 8.8250079133420378e-01 1.2033989934164824e+00 5.6762553647981511e+00 0 0 -1
1080 1 1.8424862202795789e+00 1.6188522874058060e+00 5.7855458348724484e+00 0 0 0
3881 2 7.7699121337265655e+00 3.3370410792563838e+00 8.8512262443436942e+00 0 0 0
3839 2 7.7884316322920153e+00 4.1697374800849613e-01 8.2967705679425521e+00 0 0 0
4295 2 4.2256045204386655e-01 7.5606170954295715e-01 8.5049168951614664e+00 2 1 0
1498 1 1.5555587112532960e+00 8.3814434998886789e-01 6.3834742260099526e+00 0 0 0
1683 1 2.7820576993106627e+00 1.4858483950853332e+00 6.0601270319261538e+00 0 0 0
1199 1 3.3825028102488344e+00 1.8655294530390638e+00 5.1608804755663868e+00 1 1 0
4081 2 2.6953608977488681e+00 3.9491778140026121e+00 9.1113481343629950e+00 0 0 -1
3793 2 6.6378014894883286e+00 2.5253507280443455e-01 9.4684941407192209e+00 1 1 -1
1349 1 4.4526237099671233e+00 9.1073470024713754e-01 6.0534465404608460e+00 1 1 0
4122 2 5.0323591269662078e+00 1.1318551078203154e+00 5.4111002546822338e+00 0 0 0
971 1 7.5039433654120753e+00 3.9391884549180172e+00 9.4570094827577655e+00 0 0 -1
1654 1 5.3414419097657238e+00 1.6966028348502484e+00 6.0786792321599714e+00 0 0 0
1907 1 5.4337507449813458e+00 6.1327486565553013e-01 6.2235301125409421e+00 1 1 0
2102 1 8.5937023974780740e+00 3.9655259961462280e-01 7.6409101764080578e+00 0 0 0
4175 2 7.6669160286319817e+00 1.8294579269096185e+00 7.9479857722371081e+00 1 1 0
626 1 7.9377797098336556e-01 2.4966907390800888e+00 7.0676186953796263e+00 0 0 0
1955 1 6.5997275265556681e+00 3.9907423368989945e+00 6.5011561410249534e+00 0 0 0
933 1 -4.2435244736669420e-01 3.3293177870597952e+00 8.7189131998958231e+00 1 1 0
553 1 -1.0411101231429716e+00 2.7607819910887232e+00 8.0965442145949087e+00 0 0 -1
1407 1 7.8885372352264120e+00 2.4971679596480278e+00 8.8759331152752274e+00 1 1 0
1212 1 8.0539316461281558e+00 8.4315860859276937e-01 9.4133833623351233e+00 1 1 -1
1142 1 4.6198393816684620e+00 4.1690394429732720e+00 9.1142848901164921e+00 0 0 0
2753 1 7.7155257089892695e+00 9.8255409733289090e-01 7.6114860401903348e+00 1 1 0
517 1 2.6101903606520769e+00 4.8227083420116834e+00 9.1328634480373232e+00 0 0 0
179 1 -5.6697477041621225e-01 1.5344608473969250e+00 7.0514327041733713e+00 0 0 0
1095 1 5.9657090036153173e+00 2.1924275781429885e+00 7.9488618358509973e+00 0 0 0
4220 2 6.2551453355549302e+00 1.3338600741396731e+00 7.3322901926364858e+00 0 0 -1
1180 1 4.1494673259648496e-01 2.4389644270450028e+00 5.2955867977354849e+00 0 0 0
370 1 9.7517473160505774e-01 2.3113887545617873e-01 7.9846885680683064e+00 1 1 0
1114 1 1.8359042375029402e+00 2.5873289079647948e+00 5.3195820205232511e+00 0 0 0
1187 1 2.5211763194453667e+00 2.4882118347806501e+00 6.1958012062238588e+00 0 0 0
659 1 1.5631016704831606e+00 3.2573463794613606e+00 6.0838930676145688e+00 0 0 0
3713 2 2.3699802675750128e+00 3.1769205122556534e+00 5.6737956270128471e+00 0 0 0
698 1 1.0656713829514577e+00 2.3115685998524196e+00 6.0833831563853282e+00 0 0 0
1177 1 2.9711228533333505e+00 2.8369242326745967e+00 5.1221171531826126e+00 0 0 0
1853 1 3.5211680581100513e+00 2.1735291241687880e+00 6.2293177192779625e+00 1 1 1
3123 1 3.3723367741681574e+00 3.1760865448221671e+00 5.9793258930200164e+00 1 0 0
3577 2 4.2739203873583582e+00 2.6219095541660868e+00 6.1347105980190930e+00 0 0 -1
1361 1 6.9073439072308460e+00 2.2951956877927215e+00 8.2727284155824670e+00 1 1 0
1647 1 4.4387297792793357e+00 1.9528912367187712e+00 5.6218157751266755e+00 0 0 0
1049 1 5.3250612241466886e+00 2.4735036681724973e+00 5.4166311255315698e+00 0 0 0
2196 1 5.9589075739782835e+00 3.3334393819311505e+00 5.7976653909368379e+00 1 1 -1
1153 1 5.1380316043994352e+00 2.6672960467071491e+00 6.3992153629389099e+00 0 0 0
1171 1 6.8958790295682961e+00 3.5203327499758186e+00 5.4573360166389815e+00 0 0 0
1676 1 4.2454030039440154e+00 2.8737696725575699e+00 5.1984379582174682e+00 0 0 0
2161 1 7.3657263659962737e+00 3.5050841755826734e+00 7.0823239353742853e+00 0 0 0
1674 1 7.7334906046253344e+00 7.3782454510394405e-02 7.0478227290357331e+00 0 0 0
227 1 1.8456641639139046e+00 3.8993686262785139e+00 8.7452422279152309e+00 0 0 0
2042 1 7.2993055234327127e+00 6.1382671842347691e-01 6.1675360313483321e+00 0 0 0
621 1 2.4135043353539216e+00 4.4704021516603315e-01 5.8253203821730715e+00 0 0 0
1021 1 5.9190300708489652e+00 3.5405827065011692e+00 9.1737858955896581e+00 0 0 0
1640 1 5.2958996243021188e+00 2.5834560021231172e+00 8.8261118506067522e+00 0 0 0
784 1 5.4643658883420878e+00 1.2324947156254549e+00 7.0233107183183927e+00 1 1 0
2060 1 7.7968253658652520e+00 2.7309778629131611e+00 6.4593798914327731e+00 0 0 0
1093 1 1.9154319282747485e+00 4.1267717472208894e+00 5.6383631248662311e+00 0 0 0
3787 2 4.6167264173276337e+00 3.9662024181538094e+00 7.0838088753479909e+00 0 0 0
2088 1 2.8614629255304438e+00 3.8783978094750067e+00 5.2871206537142070e+00 0 0 0
127 1 2.5436642782336465e+00 3.5887813083216815e+00 6.4090287117666911e+00 0 0 0
3749 2 5.8605078750777393e+00 4.0236519441594210e+00 8.2871373791413614e+00 0 0 0
1085 1 3.9658737772545383e+00 3.9286395817403288e+00 5.3303931115034482e+00 0 0 0
3016 1 3.3143995978721121e+00 4.2209531684608130e+00 6.1448166105303379e+00 1 0 0
1078 1 4.4671024165020974e+00 2.4657156611721676e+00 8.1618883229629233e+00 0 0 0
1030 1 4.9207313770503820e+00 3.5276540002455490e+00 5.5806350958619619e+00 0 0 0
1107 1 1.9675896428940380e+00 8.8737092483619195e-01 9.3346239501539010e+00 0 0 0
1115 1 5.3064734773350217e+00 3.9565701814515832e+00 6.4764025736607023e+00 0 0 0
1635 1 7.0941344287959147e+00 1.9204667698099191e+00 6.3471466668997634e+00 0 0 0