LAMMPS data file via write_data, version 12 Dec 2018, timestep = 314160

4320 atoms
2 atom types

0.0000000000000000e+00 1.9309999999999999e+01 xlo xhi
0.0000000000000000e+00 1.9309999999999999e+01 ylo yhi
0.0000000000000000e+00 9.6549999999999994e+00 zlo zhi
9.1915599999999973e+00 0.0000000000000000e+00 0.0000000000000000e+00 xy xz yz

Masses

1 1
2 1

Atoms # atomic

2850 1 8.6686821299355294e+00 2.4010948573574487e+00 2.1681627692125671e+00 0 1 0
2838 1 9.3205451463807076e+00 2.7877635745062333e-02 2.0935659139173821e-01 0 1 1
2330 1 8.3817831350537446e+00 6.2286347768546102e-01 8.3246318532532060e-01 0 1 1
3798 2 9.0424144010018797e+00 1.2109624157939023e+00 3.3586932211889815e+00 0 1 0
1621 1 5.9208000773367111e+00 4.6749477309255445e+00 3.0612403978856322e+00 0 0 0
1870 1 6.9249741749491251e+00 1.5807461565552299e+00 4.2128819139320589e-01 0 1 1
4041 2 7.0821642979300163e+00 5.2052395171456423e-01 3.8931572608497653e+00 0 1 0
2949 1 1.0378312674819075e+01 1.7139506851563393e+00 1.9860805713277037e+00 0 0 0
1544 1 7.7499097177361929e+00 2.5099482450015671e+00 5.6640341579218967e-01 0 0 0
851 1 7.3307080923811974e-01 7.4877242197042304e-01 6.8591409375326640e-01 0 1 0
3635 2 8.1150843646872364e+00 1.0140095508111138e+00 4.5350789705188479e+00 0 0 1
3587 2 6.1248307707400347e+00 4.7197306086412558e+00 2.1070101849718417e+00 0 0 0
2108 1 5.3114814644233235e+00 3.8839927591975001e+00 4.5062545633888957e+00 0 0 0
3501 2 1.1019430065815818e+01 3.7808388688502461e+00 2.5417834783962214e+00 -1 0 0
1127 1 2.2247850986454001e+00 4.8926122010825313e-01 6.2664450913508829e-01 0 0 1
1554 1 2.5794702259459958e+00 1.5645232798311310e+00 8.0162595587261831e-01 0 0 1
4042 2 1.7063942458122026e+00 1.2969785787062700e+00 4.5698974881802510e+00 0 1 0
95 1 3.0699614909469108e+00 6.8958257547015500e-01 1.4213219883631001e+00 0 0 0
2498 1 1.1819329919597475e+01 4.6857055102503793e+00 4.0672739952865316e+00 0 0 0
2468 1 8.3432092089823637e+00 3.3265271080065251e+00 9.9460133853397781e-01 0 0 0
870 1 3.6663436786681483e+00 1.7365717801644585e+00 1.2697599169424978e+00 0 1 1
1798 1 4.1106842678945856e+00 1.0587869867222466e+00 5.8933316917726242e-01 0 1 0
2689 1 7.7993666920911746e+00 2.4527458365296768e+00 2.6889507369213441e+00 0 0 0
906 1 7.0893608281326124e+00 2.9851247737133320e+00 2.2274082916039633e+00 0 1 0
1615 1 5.0349416537355225e+00 1.4269671111596760e+00 8.0028487923396174e-01 0 0 1
2677 1 9.5974308261729924e+00 7.0661694302858769e-01 1.3421116746401076e+00 0 0 1
1357 1 4.8068534402131231e+00 6.9741986702774228e-01 1.5811998647462300e+00 0 1 1
767 1 5.9994133530707812e+00 1.7882225389152127e+00 1.0741973702863001e+00 0 1 0
137 1 8.6629676301471698e-02 6.3628811023987472e-02 2.6529128151485792e-01 0 0 1
3468 2 5.9351358388758726e+00 2.7331438419123262e+00 9.2270272072134618e-01 -1 0 1
2132 1 8.4852146431005018e+00 1.5740622346789175e+00 3.9463460879937848e+00 0 0 0
1671 1 8.0250989534643509e+00 4.3247474595375124e+00 7.9962096559682772e-01 0 0 1
1979 1 8.0794617512415385e+00 3.3342499984318299e+00 2.0513821223487638e+00 0 0 0
3771 2 7.6918534494465209e+00 3.8791785669473948e+00 3.7077230623149635e+00 0 1 -1
1066 1 8.9960568934455587e+00 4.0410234585854985e+00 5.9740364690078473e-01 0 0 0
4063 2 7.9617799040012311e+00 8.6303212278993269e-01 2.5227138615134748e+00 0 1 1
1976 1 1.0790013304064377e+01 2.7382645494866922e+00 1.7369177335309884e+00 0 0 0
1493 1 9.5960751497296890e+00 1.6734336275209540e+00 3.9599195546863033e+00 0 0 0
2201 1 7.0317820057463543e+00 4.4365342007884250e+00 1.0068027777815873e+00 0 1 0
2649 1 1.0811197509190462e+01 4.3832338420030705e+00 4.2675956207482821e+00 0 0 0
1550 1 7.5466092191432423e+00 3.6203861463019688e-01 4.6074534288564317e+00 0 0 0
1117 1 2.7757598882096066e+00 4.0833097006406112e+00 1.5261242578106612e-01 0 0 1
34 1 1.6419318632156710e+00 2.2763212461421731e+00 5.6361177669003004e-01 0 0 0
574 1 2.0878595866106116e+00 4.1234428387856248e+00 4.5478419211464782e+00 0 0 0
968 1 2.7593220803442384e+00 2.6059405039460422e+00 6.6031474071615370e-01 0 0 1
3708 2 1.7357025781895579e+00 1.7769002760157815e+00 2.0569819904647133e+00 0 0 0
1166 1 2.1038712376438324e+00 2.3198525429478600e+00 1.5121147358082860e+00 0 0 1
3768 2 2.4763341773478658e+00 3.3564945262474115e+00 5.6819827190110261e-01 0 1 0
2754 1 8.7318005180272706e+00 5.2504464607011114e-01 2.9148653192802296e+00 0 1 0
3757 2 4.3978872208871316e+00 2.0331877226449486e+00 9.1644370595158586e-01 0 0 1
1764 1 3.7716266864059582e+00 2.6140425863083765e+00 6.3548953594041646e-01 0 1 0
1617 1 5.0345645773423113e+00 2.5484201038846188e+00 6.5257833171205282e-01 0 0 1
1785 1 5.9951659514457667e+00 6.5471154651032537e-01 2.7331149911509445e+00 0 1 0
4228 2 1.5528322005466493e+00 7.0107524700478235e-02 2.3860324975477769e+00 1 0 0
4116 2 2.2204197458058288e+00 8.7040421158889902e-01 1.4801402383536792e+00 1 0 -1
1505 1 2.4505411134894444e+00 4.0193698243479119e+00 3.5253035253580278e+00 0 0 0
1667 1 8.6128279050453695e+00 8.4922587808405536e-01 1.8471165725145340e+00 0 0 1
3619 2 1.6328035369785834e+00 3.3901311384416237e+00 3.1004675327051388e+00 0 0 1
2076 1 6.7121710957953473e+00 2.1730947584688449e+00 3.0486534119473467e+00 0 0 1
1489 1 8.7611170448406703e+00 2.4507682630730603e+00 3.3055416913158315e+00 0 0 0
2275 1 9.8529938131863055e+00 4.0133380734305772e+00 1.3151949431304135e+00 0 1 0
1897 1 7.3155157097416321e+00 6.2910390200020028e-01 1.8746141459445942e+00 0 1 1
1029 1 4.8617936093128904e+00 2.8207675574846336e-01 6.6823363648060263e-01 0 0 0
1358 1 2.5670415353652158e+00 6.8519762020380492e-01 2.3514829947451688e+00 0 1 1
2081 1 9.1784071927229931e+00 3.3151743090558949e+00 3.8354136884155934e+00 0 0 0
1098 1 6.8270124551910722e+00 2.6443428133507352e+00 4.4287357165635664e-02 0 0 1
3601 2 1.0655807964239212e+01 4.1575274408032374e+00 8.2994373549428924e-01 -1 0 1
976 1 4.7622376928542094e+00 2.6309469989142675e-01 4.2859710935886017e+00 0 0 0
1538 1 7.5812523859752465e+00 1.4450914964713979e+00 3.1607900440306000e+00 0 0 0
3979 2 1.0336277165504020e+01 1.8520646014890514e+00 3.4005680360113102e+00 0 0 0
124 1 3.3824006731526590e+00 4.1198364634098370e+00 4.1298780522794392e+00 0 0 0
3764 2 6.5331798326651151e+00 4.8358991682763336e-01 2.0136148161499512e+00 0 1 -1
1019 1 3.3577326936069651e+00 3.5556959752625210e+00 8.9866751190634775e-01 0 0 0
1198 1 2.4361414107825334e+00 3.9662744825361096e+00 1.1997888267504202e+00 0 1 0
3627 2 3.2413228384204840e+00 4.4989034657348022e+00 7.4895767279323100e-01 0 0 1
2159 1 8.4659576870292224e+00 4.2425006196885251e+00 3.9825923907676168e+00 0 0 0
2515 1 1.0560044009515428e+01 3.2589466441583768e+00 8.5452425581068148e-01 0 0 0
567 1 4.3448960434371422e+00 3.4897774070372338e+00 1.0311514339589480e+00 0 0 0
669 1 3.8953009475717062e+00 4.3997080215316737e+00 1.2937792616115387e+00 0 0 1
970 1 3.8515822671757349e+00 4.8271230508671783e+00 4.7789961919865300e+00 0 0 0
1051 1 3.8837464852700450e+00 4.1208516465532314e+00 2.2225203344856051e-01 0 0 0
1122 1 8.6250497538901492e+00 1.9599199113864547e+00 8.5081945091156866e-02 0 0 0
1858 1 6.7774079679306141e+00 2.3343869594278575e+00 4.0841548053421706e+00 0 1 0
2120 1 9.7195235375027913e+00 2.8675663879578130e+00 4.5995565457486576e+00 0 0 0
503 1 6.4686463609983376e+00 3.4221601569212763e+00 7.3115392118595601e-01 0 0 0
1506 1 5.4248148099183755e+00 3.4274175780117679e+00 9.7436499070359817e-01 0 0 0
1564 1 6.2731518421707158e+00 4.3691548438701417e+00 1.9629214901658260e-01 0 0 1
1572 1 5.9886515702351231e+00 4.2699829746989888e+00 1.3151916927511456e+00 0 0 1
889 1 6.2194880044850880e+00 1.5378671237826409e+00 4.5246765644400506e+00 0 1 0
253 1 1.4098851514310162e+00 3.7155195015748949e-01 1.3918615280747835e+00 0 1 0
3730 2 1.0047956402116867e+01 3.2456999916632321e+00 1.5890158798887228e+00 0 0 -1
1470 1 7.3365750951548199e+00 3.5231967664564685e+00 1.3442117338545612e+00 0 0 0
1167 1 1.8155503980499712e+00 2.2889684925588365e+00 4.5661736285935701e+00 0 0 0
1485 1 8.5594750172056511e+00 1.5425015908113529e+00 2.7845783031583187e+00 0 0 0
2642 1 9.7176543882206960e+00 2.5351851381237340e+00 2.2875076089957300e+00 0 0 0
1991 1 9.6074802733475497e+00 6.7059549401180618e-01 2.3775993499730346e+00 0 0 0
2500 1 1.0507181115156573e+01 2.1986663585097581e+00 4.2211673868784096e+00 0 0 0
2250 1 7.6826579170919214e+00 2.3586967067467541e+00 3.7263628547131464e+00 0 1 0
1000 1 7.4744130006949439e-01 1.1343711129783718e+00 1.7523422594522400e+00 0 0 0
1766 1 4.2715395077282921e+00 7.5827788922014777e-02 2.1606906268904926e+00 0 1 0
2555 1 1.0170149619395429e+01 3.6661269009266673e+00 4.0504139468669615e+00 0 0 0
159 1 1.5656358214141270e+00 9.7056272464759685e-01 2.3948664786073968e+00 0 0 0
992 1 7.5899073548932705e-01 8.3476755446216078e-01 3.1995056842235465e+00 0 0 0
2854 1 8.7145482858376067e+00 2.5803290690360958e+00 4.4629889935443039e+00 0 1 0
1134 1 2.1635907650027408e+00 1.6950056497442572e+00 2.8655876577532853e+00 0 0 1
1040 1 2.8155999255340856e+00 1.6005903842358029e+00 1.9186271724765644e+00 0 0 0
3063 1 1.0201173703939448e+01 3.4109910209590244e+00 2.4143069379045188e+00 0 0 0
1783 1 3.8015775920284640e+00 9.9162287056828846e-01 2.1977091210807198e+00 0 1 0
3878 2 3.9492866822808943e+00 7.8049210498541910e-01 1.3939493223149442e+00 0 0 1
631 1 3.1194980310645120e+00 1.3448378038370483e+00 2.9412251226913799e+00 0 0 0
3756 2 5.5319014589936852e+00 7.2918788007704705e-01 9.4689127644581250e-01 0 0 1
2047 1 1.0608811359650272e+01 2.4308950203770396e+00 2.7398300362456296e+00 0 0 0
575 1 4.0918290503333674e+00 1.3118371617806148e+00 3.2025127505008921e+00 0 0 0
722 1 4.6184608733500969e+00 1.7008104209914083e+00 1.7280889613576846e+00 0 1 0
1147 1 4.9718002570717248e+00 9.6608822801918903e-01 2.5767400868959967e+00 0 0 1
1351 1 5.7772522990313000e+00 1.2801805382998599e+00 1.9506727317349504e+00 0 1 0
3775 2 6.0633663806825773e+00 1.5009907055830682e+00 2.8926545622937558e+00 0 1 0
548 1 4.2077057315647490e+00 3.6201967806054971e+00 4.5558248119881144e+00 0 0 0
2737 1 9.7640536209989079e+00 7.2637314334328806e-01 3.3685264530455243e+00 0 1 0
3503 2 6.2568096863232352e+00 2.9899363498346014e+00 3.7857377159578602e+00 -1 0 2
2037 1 5.2563237777241021e+00 4.8175352711366006e+00 2.3274818226664933e+00 0 0 0
1684 1 9.3211336705110952e+00 4.3044922001814170e+00 3.3978216737144860e+00 0 0 0
2538 1 8.7676624734069275e+00 2.3949815882840602e+00 1.0764305573435911e+00 0 0 0
1622 1 6.6991499625542943e+00 4.3423891178154408e+00 3.6694083128707136e+00 0 0 0
1855 1 6.3612895260495526e+00 8.1650803986529696e-01 1.1387134401283425e+00 0 1 1
1471 1 9.0306577102121270e+00 7.0136912738741208e-01 4.2751196600277988e+00 0 0 0
1965 1 7.7995110815195368e+00 2.4199806335750740e+00 1.6027326163795297e+00 0 0 0
1455 1 7.2315270080298948e+00 4.3372079493504739e-01 2.9957237113809643e+00 0 0 0
1818 1 4.3137507328104494e+00 8.1146402375821075e-02 3.1624582339543146e+00 0 1 1
817 1 5.5713576743715643e-01 2.2797114946051877e-01 2.3510034605837813e+00 0 1 0
115 1 1.8456935936223842e-01 1.1240006497804185e-01 1.3494509747858396e+00 0 0 0
2941 1 1.6728445487050023e+00 2.7685810634210664e+00 2.4286321064756096e+00 1 0 0
3608 2 1.4999484145548787e+00 2.2301084859575195e+00 3.0199892489882765e+00 0 0 0
1380 1 5.7284243439951537e+00 1.7699792703333561e-01 1.7256689656486677e+00 0 1 1
555 1 1.6278989619400597e+00 1.3542949387070133e+00 1.2074687359150542e+00 0 0 0
505 1 3.2097510925363655e+00 2.7202485647231565e+00 1.5816423816824774e+00 0 0 0
663 1 2.7306197658871039e+00 2.4856959707529684e+00 2.4671769367771028e+00 0 0 0
3686 2 2.4260456364643068e+00 3.1496639106758781e+00 1.8473740859168988e+00 0 1 0
1446 1 3.5512012619213920e+00 3.1299903597504328e+00 2.5360394480688688e+00 0 0 0
568 1 3.6682480578729213e+00 2.0432532554494327e+00 2.3201530189600565e+00 0 0 0
3703 2 3.8155413570298204e+00 3.3930500193208499e+00 1.7484878198463036e+00 0 0 0
3533 2 4.5228272005661765e+00 1.8337620492142941e+00 2.5638772832761272e+00 0 1 0
1462 1 4.3128451843524989e+00 2.6106895076254921e+00 1.5521920813271808e+00 0 0 0
1511 1 4.5256370039384279e+00 2.7218252664810154e+00 2.5960363441992449e+00 0 0 0
1561 1 4.9972416206038854e+00 3.3776943576385134e+00 1.9473913554700994e+00 0 0 0
2197 1 5.3746608933406055e+00 2.0106444092612761e+00 2.5690580751851195e+00 0 1 0
566 1 5.3425966242945835e+00 2.4583816622384291e+00 1.6083358736598818e+00 0 0 0
1437 1 6.1615626677056978e+00 3.1676822507750888e+00 1.6611978393176523e+00 0 0 0
2101 1 6.3357330202180471e+00 2.1936255593601897e+00 2.0879320561573049e+00 0 0 1
3946 2 5.7629051173924601e+00 2.8601595113273031e+00 2.3161447153067609e+00 0 1 0
1721 1 5.3403040703999967e+00 3.0359268155905954e+00 3.0533192792119923e+00 0 1 0
2421 1 6.3863798859290464e+00 3.1754809200016854e+00 2.9669609916604860e+00 0 0 0
2098 1 4.8868757440994708e+00 3.9598920246168010e+00 2.0734787831418805e-01 0 0 1
1076 1 9.5766912557882922e+00 3.1737147004742168e+00 5.7323040146211612e-01 0 0 0
599 1 1.7781021663921035e+00 7.4651850071290460e-01 3.4611513742568518e+00 0 0 0
991 1 6.8119711709461130e+00 1.2675771841320262e+00 2.4671219382302945e+00 0 0 0
2145 1 8.1112265742732781e+00 3.2137210596204309e+00 3.3586761174028257e+00 0 0 0
1689 1 8.0355120205575492e+00 3.3526205978915220e+00 4.3519269239740490e+00 0 0 0
3750 2 9.8209198972986089e-01 1.6797873344806005e+00 6.9706291016843414e-01 0 0 1
2436 1 1.1157209401285222e+01 4.6520543842067275e+00 2.3044282493981303e+00 0 0 0
2176 1 8.0166044731520003e+00 5.9704201291808878e-01 3.7240741917906250e+00 0 1 0
4056 2 9.7796700348857541e+00 3.5659715690533269e+00 3.2079311079985824e+00 0 0 0
1073 1 5.3966840174330795e+00 3.3587070419351733e-01 3.5090873465937875e+00 0 0 0
1682 1 5.8295216940737529e+00 3.7730144096995692e+00 3.6616710409784585e+00 0 0 0
3865 2 4.5066735787907595e+00 4.5964053704980037e+00 6.5030242635070112e-01 0 0 0
1526 1 2.8975551998655957e+00 3.4261932364499459e+00 4.6556404399625011e+00 0 0 0
1190 1 1.4802284135941082e+00 1.2095282013948583e+00 1.3941883338705732e-01 0 0 1
1457 1 7.6833107469193891e+00 4.6779365294447537e+00 3.4161142251177710e+00 0 0 0
3500 2 9.9075265821093588e+00 7.6571532718623192e-01 4.2541211038470435e+00 0 0 1
1160 1 6.9884830477956097e+00 1.5618727669712449e+00 1.4706159948725219e+00 0 0 0
1440 1 2.4751484170027909e+00 3.5152856471437635e+00 2.6601755852502835e+00 0 0 0
664 1 3.1948955845207658e+00 3.8848532983006376e+00 1.9535109284926648e+00 0 0 0
1499 1 5.8688676877884483e+00 2.2305251143120182e+00 1.9007814629707712e-01 0 0 1
3121 1 7.4545407738143705e+00 4.2735813484380243e+00 4.3724307176328194e+00 0 0 0
994 1 3.5197742691820864e+00 4.0966917552026674e+00 3.0777218896916687e+00 0 0 0
1428 1 4.9365867786847186e+00 4.2893039858181075e+00 1.4119348412719281e+00 0 0 0
1472 1 7.8002066723398471e+00 4.4115911220628865e+00 1.9757199004337029e+00 0 0 0
534 1 4.9810439616035955e+00 3.9938372345613020e+00 3.0923657476519817e+00 0 0 0
1271 1 4.1954252382754991e+00 3.9045482546449448e+00 2.3548838998249635e+00 0 1 0
952 1 6.8783802252800896e+00 2.5602315874812747e+00 1.1762286582808734e+00 0 0 0
3838 2 5.2155527375467763e+00 4.4108645725458056e+00 3.8409749805122817e+00 0 0 0
2946 1 7.2844663444362894e+00 6.6498644507269156e-01 7.6884623003132868e-01 0 0 0
1072 1 6.7582336974840569e+00 4.0605695529012422e+00 2.0283510691921127e+00 0 0 0
1535 1 5.8104887572257589e+00 3.8508713293965293e+00 2.4426401720290469e+00 0 0 0
3964 2 6.4632131877393562e+00 4.0241643496205182e+00 2.8852180015247209e+00 0 1 0
1696 1 5.9279182881334691e+00 4.6984299078500635e+00 4.2567396741169938e+00 0 0 0
3602 2 5.9103167942022941e+00 7.3741021004776752e-01 4.0320375993567898e+00 0 0 0
964 1 8.7203505434543409e+00 4.1263761946391107e+00 1.5874583944731677e+00 0 0 0
1425 1 7.0729852046227988e+00 3.3659822958503796e+00 3.8912064779067430e+00 0 1 0
1644 1 6.4279735413064101e+00 3.7692848276873030e+00 4.6268166337346361e+00 0 0 0
386 1 3.7538449701251855e+00 5.6772321022898753e-01 3.9652544347325933e+00 0 1 0
3460 2 7.2557667096819971e+00 2.9649572486987417e+00 3.1393684440988197e+00 -1 0 0
2823 1 1.0411459435085021e+01 4.1427295750379454e+00 3.1679008798882564e+00 0 1 0
1441 1 8.6799599376749264e+00 2.9599265924885767e+00 7.1371583453150936e-02 0 0 0
2428 1 1.0029850144438212e+01 4.0863177565193025e+00 1.8763440156500513e-01 0 1 1
1570 1 1.0828125550220799e+01 3.8713376229466023e+00 1.7095013529988712e+00 0 0 1
3676 2 7.2426779718698242e+00 2.0877753392242755e+00 2.1303546652577756e+00 0 1 1
751 1 3.3379485591488396e+00 3.4832250649597235e-01 3.0271671322472327e+00 0 1 0
2479 1 1.1529015142494238e+01 4.4267873895840886e+00 1.1739900566438257e+00 0 0 0
2386 1 9.3448820378461122e+00 1.6066591282695570e+00 1.8537466623158190e+00 0 1 1
652 1 1.0234589262351435e+00 8.3690822423586031e-01 4.2635155803182911e+00 0 0 0
1439 1 9.4616830566174919e+00 4.2343274181559618e+00 2.3227653587032373e+00 0 0 0
1242 1 3.4136181037693469e+00 1.7957501879917146e+00 1.7996721439762070e-01 0 1 0
4264 2 2.5834883659051990e+00 6.6660057881989143e-01 3.1685393067529266e+00 1 0 1
1054 1 2.8136426440307387e+00 7.8731091445215784e-01 3.9949561921099273e+00 0 0 0
481 1 2.1572547255474381e+00 1.6342963275161202e+00 3.9115897445700507e+00 0 0 0
235 1 3.4024429206414499e+00 1.6301619173986213e+00 4.0414967808843558e+00 0 0 0
4242 2 8.5358925225593474e+00 1.7587131322684486e+00 1.6127797616662749e+00 0 0 1
3856 2 4.7130989891016188e+00 7.9890249516579126e-01 3.5065257714648297e+00 0 0 0
2360 1 4.5064771549612352e+00 1.3093726141879838e+00 4.2348769204248722e+00 0 1 0
30 1 4.3217255330761857e+00 4.3976441333739595e+00 3.7971566685811196e+00 0 0 0
4281 2 9.3138363048612423e+00 2.4307356731045004e+00 4.7021068758160339e-01 0 1 0
1950 1 6.5160474928443568e+00 1.1443940364854781e+00 3.5472993304028058e+00 0 0 0
2646 1 9.6663402799564135e+00 1.6290893404946947e+00 2.8556375057876719e+00 0 0 1
580 1 5.4484572472851189e+00 1.3390065889236256e+00 3.6905857054369484e+00 0 0 0
878 1 6.5229099924792848e+00 4.5100685994745693e-01 4.5337875487193120e+00 0 1 0
1103 1 7.3792033237979613e+00 1.3244615476530526e+00 4.2006129221579735e+00 0 0 0
4147 2 1.0249372238089782e+01 4.4362329987829927e+00 1.9373717148456331e+00 0 0 0
2358 1 1.0333686144650253e+01 2.3948419785644148e+00 3.0559477043999750e-01 0 1 0
550 1 2.5223230702117978e+00 4.5776960949906620e+00 2.5536351506813855e+00 0 0 0
1519 1 7.8671894579910706e+00 1.5488642703141982e+00 2.0618336184221140e+00 0 0 0
1711 1 7.4615037100190360e+00 3.4803141613913029e+00 2.8293598869728098e-01 0 1 0
1359 1 5.8436743416694048e+00 1.1297735256251069e+00 2.4256723453485243e-01 0 1 1
2544 1 9.4782537382155905e+00 4.3551442455143627e+00 4.4069595965762014e+00 0 0 0
2056 1 9.0310241181226445e+00 1.4179518754133702e+00 8.5912206510564160e-01 0 0 1
3793 2 6.6341995138268413e+00 2.5069614028395937e-01 4.3795287874087480e-01 0 1 0
2513 1 7.9778043286785687e+00 1.5397217979934998e+00 1.0371679265134766e+00 0 0 0
987 1 4.4383715095047354e+00 1.9975077523308209e+00 4.3002698641479084e-02 0 0 0
2063 1 8.4146479016349680e+00 4.1820466130755438e+00 2.7559714708014504e+00 0 0 0
1983 1 9.8293590061590912e+00 2.6155965859132619e+00 3.4402793808641197e+00 0 0 0
1165 1 1.0979975041330154e+00 1.8036641163524794e+00 3.6873136075887420e+00 0 0 0
2952 1 1.1258635981113306e+01 3.8580421823975164e+00 3.5192417408694338e-01 0 0 0
572 1 2.0089455085375292e+00 2.6603834661583048e+00 3.5394477463322875e+00 0 0 0
1988 1 9.2340263483659832e+00 3.2586617783494938e+00 1.6230253044699183e+00 0 0 0
2631 1 9.0726372152323691e+00 3.2859486370472140e+00 2.7304173442175399e+00 0 0 0
3719 2 2.1936576932945444e+00 3.0595135583003290e+00 4.3053566859604935e+00 0 0 -1
4119 2 2.6936742309243922e+00 2.1268444942188882e+00 3.4087834950560119e+00 0 0 0
1007 1 2.8534461071924615e+00 2.4605620152271537e+00 4.2128796782441524e+00 0 0 0
2164 1 3.0581025755673261e+00 3.1950552750681056e+00 3.5226546262632334e+00 0 0 1
3884 2 3.5844944230773779e+00 3.0835449923844567e+00 4.2459769641455223e+00 0 0 1
1062 1 3.6541377321933792e+00 2.3846789049590837e+00 3.3121169655220917e+00 0 0 0
1194 1 4.7358603126309280e+00 2.0933321328806889e+00 3.4435632184263087e+00 0 1 0
814 1 4.1671000065015109e+00 2.3841902889589424e+00 4.2734370507786963e+00 0 1 0
1081 1 4.1296303514505794e+00 3.2980825057469669e+00 3.5033766022782795e+00 0 0 1
860 1 4.9846244432982632e+00 2.9725003355551345e+00 4.0766212809360862e+00 0 1 1
2055 1 9.8582312950168642e+00 2.3620798789474313e+00 1.2561270354318652e+00 0 0 1
1678 1 7.3229156423562367e+00 3.8167830504391542e+00 2.9155291840177200e+00 0 0 1
1071 1 5.2297760765454164e+00 1.9758121071506476e+00 4.6768772421306224e+00 0 0 -1
1573 1 5.7842862762637646e+00 2.2731112513760259e+00 3.6379089881386717e+00 0 0 0
537 1 5.8942782634235247e+00 2.8335130529301313e+00 4.5851586551651087e+00 0 0 0
975 1 7.7686023758039227e+00 2.1474574265531272e+00 4.7250927916151779e+00 0 0 0
2174 1 3.3178407022340117e+00 3.4825844760848168e-01 4.4688107010992228e-01 0 1 0
2661 1 1.0815811530859627e+01 3.2153711539357772e+00 3.3663883976074831e+00 0 0 0
1651 1 6.3033063869336594e+00 1.2271476940000936e-02 3.5794183220828431e+00 0 0 1
1491 1 2.0993100397476923e+00 5.2172192369064341e-01 4.7195785157211416e+00 0 0 -1
3464 2 8.6957789423641962e-01 4.3047231921231853e-02 3.9057604084593378e+00 0 0 -1
1975 1 1.0267782310852098e+01 1.4484244011484464e+00 9.5802788041825904e-01 0 0 0
50 1 2.9204221885533430e+00 4.8071148567188482e+00 1.4724056967327654e+00 0 0 0
4263 2 4.3879866880170733e+00 4.7867278139828358e+00 1.9789410484650423e+00 1 0 0
2030 1 1.0779555908858164e+01 3.0806925348562721e+00 4.7312992221282091e+00 0 0 0
1376 1 9.1351518354347216e-01 1.8287504285987060e+00 2.6170802032723852e+00 0 1 0
656 1 1.6396456046657195e+00 3.3879097776406084e+00 5.2519730385683194e-01 0 0 1
2444 1 9.6438246333209054e+00 1.6873650369113997e+00 5.0288413759815201e-02 0 0 0
3030 1 1.0885444871175572e+01 4.8198175471736713e+00 2.2116495871285882e-01 0 0 0
513 1 2.8012401224681929e+00 4.7632068740413063e+00 4.8165054315253544e+00 0 0 0
4029 2 6.9311261690618320e+00 1.8077314461951755e+00 4.8176129724202896e+00 0 1 0
1132 1 3.1101996296595673e+00 1.4790991632038614e-01 4.8265168636102427e+00 0 0 0
2084 1 7.3071359762484445e+00 4.5028513969674986e+00 8.7774032317062458e-03 0 0 1
2522 1 9.3093230769120900e+00 4.6538355515820005e+00 6.6786799818989424e+00 0 0 0
370 1 1.7998539821522774e+00 2.6815926009900015e-01 8.0066784908656121e+00 0 1 0
186 1 3.4227292161550258e+00 4.1949529735829065e+00 8.2572998186073416e+00 0 0 0
1634 1 7.4444053021313401e+00 4.0971686377288723e+00 7.5209098673116790e+00 0 0 0
1504 1 5.8377532181542158e+00 4.5271828389449533e+00 5.2799778016109578e+00 0 0 0
842 1 6.3396722106610948e-01 2.9853252304046281e-02 5.7198884413089495e+00 0 1 0
2156 1 1.0084625857479546e+01 3.5134043397895405e+00 7.7894199529724437e+00 0 0 0
1129 1 9.1938848132672053e+00 3.8099702932996280e+00 7.4011713410319278e+00 0 0 0
3364 1 7.5473529552913279e+00 4.0565406252703889e-01 5.7993572364348429e+00 0 1 0
1184 1 5.1430477009510875e+00 4.6679758617059752e+00 6.2798805387186603e+00 0 0 0
1736 1 1.0049482471404453e+01 1.6015238670038519e+00 8.7291302833194671e+00 0 1 -1
2524 1 1.0373304854553332e+01 3.1882685223924465e+00 6.7517793142091191e+00 0 0 0
538 1 4.8315086708535517e+00 2.9748613408872188e-01 6.3682283588588762e+00 0 0 -1
4001 2 1.0696658660990032e+01 4.1727453214723917e+00 8.0104444760118323e+00 0 0 0
1722 1 6.0194707507165024e+00 6.9094753138673637e-02 7.9904676454327177e+00 0 1 0
913 1 1.3905486697291227e+00 1.5935651089827523e+00 6.0655953966107257e+00 0 1 0
1531 1 6.8300008185775898e+00 7.2186189097143794e-01 9.3087560753017602e+00 0 0 0
1581 1 8.8882190851174254e+00 4.8029310812618258e+00 7.7258541022612990e+00 0 0 0
3611 2 2.8961357710775348e+00 8.0251893861599932e-01 5.3287400809700038e+00 0 0 1
3752 2 1.9539200911553147e+00 1.9183128584551170e+00 5.4215499297669023e+00 0 0 0
526 1 2.1297356826662392e+00 1.0821831414340723e+00 5.6687463759716463e+00 0 0 -1
1080 1 3.2732516801772231e+00 1.5517471446354940e+00 5.7369555862500912e+00 0 0 0
2364 1 9.7664909779418352e+00 2.4003848911492520e+00 6.3002023001461813e+00 0 1 0
3546 2 9.1352171403720028e+00 3.1912316002554437e+00 5.7131165822192012e+00 0 1 0
4295 2 1.2763029797628740e+00 2.2927921300614462e-01 8.6712821430934763e+00 1 1 0
1498 1 2.8299776217633417e+00 8.5222944604073958e-01 6.4178519633001079e+00 0 0 0
1683 1 4.0009234986886986e+00 1.1502999117579091e+00 6.3586822092887152e+00 0 0 0
1199 1 4.2343428778783698e+00 1.8381029372490556e+00 5.1275396970553464e+00 0 1 0
4081 2 3.4838757727972425e+00 3.9710160957060237e+00 9.1377794291643184e+00 0 0 -1
2502 1 9.2823252640946095e+00 1.4778186993161591e+00 5.9752624908547372e+00 0 0 0
1349 1 5.5134632133916250e+00 8.8634531116684712e-01 5.8846256572325544e+00 0 1 0
4122 2 5.7950472470507961e+00 1.5079252048324465e+00 5.3864728098176036e+00 0 0 0
3115 1 1.6874752577210874e+00 3.3644108009367812e+00 8.7815573838017134e+00 1 0 0
1654 1 6.2088937836189926e+00 1.6217904079902674e+00 6.2218981552314201e+00 0 0 0
1907 1 6.4718857496890232e+00 6.3182216638131350e-01 6.3116532400278302e+00 0 1 0
583 1 1.9468525011339248e+00 3.6438220487916073e+00 6.9462272579982320e+00 0 0 0
4175 2 8.3839127431263325e+00 1.8400599993776803e+00 7.7905917757753214e+00 0 1 0
2593 1 1.0223504573698266e+01 4.1422056839451455e+00 6.2520829638611639e+00 0 0 0
1955 1 7.4305983540623881e+00 3.9887101900170632e+00 6.4763548306266570e+00 0 0 0
4064 2 4.8740480343712163e+00 1.4234794089149061e-01 7.7636520764262356e+00 0 1 0
3609 2 8.1605747498722945e+00 4.7198514298384495e+00 9.0452955947476230e+00 0 0 0
3881 2 8.5543243895445844e+00 3.3856039998316882e+00 8.9104240868472147e+00 0 0 0
3743 2 1.0557116071158635e+01 2.6345712296927943e+00 6.0497319931501954e+00 0 0 0
1407 1 8.5774227624012003e+00 2.4385166586461757e+00 8.7401751051453171e+00 0 1 0
2753 1 8.5392923588090177e+00 8.8800868386116638e-01 7.6930458800237522e+00 0 1 0
4078 2 6.9700243646599915e+00 8.3405478835411245e-02 5.1560612722083361e+00 0 1 0
1180 1 1.2836378206150059e+00 2.5153312559749348e+00 5.5432741268777077e+00 0 0 0
4123 2 1.0052734748981772e+01 3.9512169579192533e+00 7.0963983380832127e+00 0 0 -1
4220 2 7.2488566523282287e+00 2.2000698062902901e+00 7.4665626377428929e+00 0 0 -1
3106 1 1.0966499508100897e+01 4.1253795390374153e+00 7.0481791816229880e+00 0 0 0
2663 1 9.2609690767726391e+00 8.0192533220057960e-01 6.8670345866402593e+00 0 0 0
1114 1 2.6118625199807806e+00 2.4977452309812809e+00 5.2472580245130871e+00 0 0 0
1187 1 3.2508763540990593e+00 2.5645922881822405e+00 6.0747666707969179e+00 0 0 0
659 1 2.2488364391116384e+00 3.0429277261966448e+00 6.0862606014832048e+00 0 0 0
3713 2 3.0104394583692584e+00 3.2356908669626829e+00 5.5182136164677003e+00 0 0 0
698 1 2.3410641455732986e+00 2.0192392697197277e+00 6.2434076502020162e+00 0 0 0
1177 1 3.6727541976548612e+00 2.8171654451720798e+00 5.1121024700223234e+00 0 0 0
1853 1 4.2899516776957158e+00 2.1772384871092583e+00 6.1505348459119160e+00 0 1 1
3123 1 4.1416431802778089e+00 3.2431653050532634e+00 5.9024231067562747e+00 1 0 0
3577 2 4.9322857226889614e+00 2.8011182286525709e+00 6.0428683206861376e+00 0 0 -1
2060 1 8.7155063195612659e+00 2.7159513699180167e+00 6.4026883483241477e+00 0 0 0
1647 1 5.2398065446263207e+00 1.9809998167674943e+00 5.7168238587438633e+00 0 0 0
1049 1 6.2382353226776885e+00 2.1999230979536444e+00 5.3193167497976424e+00 0 0 0
2196 1 6.7410199775225772e+00 3.3432757872207652e+00 5.8291594131578854e+00 0 1 -1
1153 1 5.8541036780394951e+00 2.6745572649895086e+00 6.2208450641686106e+00 0 0 0
1171 1 7.6197074825084394e+00 3.7167349763809532e+00 5.3017149063231557e+00 0 0 0
1676 1 4.8007872466775279e+00 2.8938722569607425e+00 5.1809445119641317e+00 0 0 0
1402 1 4.1603692296329635e+00 1.4221785245289648e-01 9.4641184091059198e+00 0 1 0
2044 1 6.1131928862540574e+00 1.8438189636752483e-01 5.4318113671365547e+00 0 0 0
227 1 2.6504300170207018e+00 3.8019535921160461e+00 8.7827839108627277e+00 0 0 0
2042 1 8.3729144941984863e+00 9.3575799529890213e-01 6.0658358005131543e+00 0 0 0
621 1 3.5280853044441192e+00 4.6048397635516736e-01 5.7546157581020188e+00 0 0 0
4187 2 9.7626990983772615e+00 1.6755030744956712e+00 6.8718979053346096e+00 0 1 0
3728 2 8.3379488670076238e+00 4.1569159031192342e+00 7.7432342366307392e+00 0 0 0
784 1 6.6156459769542559e+00 1.5801716924946372e+00 7.1858273043449641e+00 0 1 0
2456 1 9.9346089983893915e+00 6.5316583042227860e-01 9.1635246266350343e+00 0 0 -1
1093 1 2.4788005091057350e+00 3.9413659062938633e+00 5.5825116119186893e+00 0 0 0
3787 2 5.5527959397484130e+00 4.2499223066369742e+00 6.9724053012269342e+00 0 0 0
2088 1 3.5717407287914265e+00 3.8633714383093607e+00 5.3216015318126066e+00 0 0 0
127 1 3.2177051352128112e+00 3.5979041670448413e+00 6.2699876333530815e+00 0 0 0
3749 2 6.8301885986608895e+00 4.0655155120394477e+00 8.2548258238936789e+00 0 0 0
1085 1 4.8499194487726474e+00 4.0552571046764276e+00 5.3809794251787606e+00 0 0 0
3016 1 4.0569289316285051e+00 4.2437308412834689e+00 6.2128020048633044e+00 1 0 0
2546 1 8.2800236614387810e+00 4.5131431444839283e+00 6.9562094661628313e+00 0 0 -1
1030 1 5.7323151192239887e+00 3.4323295810360843e+00 5.4765180745863198e+00 0 0 0
1057 1 3.2932828546323769e+00 4.8022562505788748e+00 5.7247145640589903e+00 0 0 0
1115 1 6.1139487129137002e+00 4.1000098575417070e+00 6.3033148402688379e+00 0 0 0
1635 1 8.2317771904594501e+00 1.9057783217320929e+00 5.9068660671214595e+00 0 0 0
2161 1 8.2378293906264339e+00 3.5318611367665049e+00 6.9757023270826028e+00 0 0 0
3722 2 1.7164807143399565e+00 2.2010850597464968e-01 5.4330018382398979e+00 0 1 -1
624 1 5.1948994578513759e+00 2.5198492714725171e+00 9.1039283670940012e+00 0 0 0
70 1 2.2894951840804403e+00 2.9423406784884425e+00 9.4610746299136199e+00 0 0 -1
4050 2 1.0048194560665920e+01 4.7970155318232228e+00 9.3584170898843055e+00 0 1 -1