LAMMPS data file via write_data, version 12 Dec 2018, timestep = 254760

4320 atoms
2 atom types

0.0000000000000000e+00 1.9309999999999999e+01 xlo xhi
0.0000000000000000e+00 1.9309999999999999e+01 ylo yhi
0.0000000000000000e+00 9.6549999999999994e+00 zlo zhi
7.4536599999999993e+00 0.0000000000000000e+00 0.0000000000000000e+00 xy xz yz

Masses

1 1
2 1

Atoms # atomic

2850 1 9.4779732307090647e+00 2.1755856956140986e+00 2.3835059549379216e+00 0 1 0
1696 1 6.5623529168093100e+00 4.7218593106740707e+00 4.2023533648964015e+00 0 0 0
2330 1 9.1541815706065019e+00 3.8965048749247222e-01 1.1377393683772632e+00 0 1 1
3798 2 9.3519734878806506e+00 8.1003005195158062e-01 3.6216324962587496e+00 0 1 0
3464 2 1.4098277515598596e+00 8.9417341319794147e-02 3.7975633808327309e+00 0 0 -1
1870 1 7.6076597634432046e+00 1.6062412802616099e+00 5.3959583758188612e-01 0 1 1
2754 1 9.4003464347953845e+00 4.3272272532449439e-02 3.2165667637220241e+00 0 1 0
1880 1 7.4333839572143692e+00 4.6812419517759531e+00 2.6518289722868547e+00 0 0 0
1544 1 8.5909839979128559e+00 2.3545853824284850e+00 6.6354871748292332e-01 0 0 0
851 1 1.1068613859921901e+00 6.8293106673827775e-01 6.4604334450419643e-01 0 1 0
3635 2 8.7630351195921499e+00 9.1606935245323529e-01 4.6484113239002944e+00 0 0 1
1190 1 2.0436408759388782e+00 1.1206790423676178e+00 4.6130939599551141e-01 0 0 1
2108 1 5.9696392015813373e+00 3.8674262085205342e+00 4.5329233402813811e+00 0 0 0
21 1 1.1790437463367365e+00 1.6394399084111233e+00 5.4677873569953073e-02 0 0 0
1127 1 2.7433846033304690e+00 3.4145611661249975e-01 3.8218380781572381e-01 0 0 1
1554 1 3.2045612865281647e+00 1.1980529907413464e+00 8.0940661175981532e-01 0 0 1
4042 2 2.3029179193213087e+00 1.3029751086815335e+00 4.2277892731420117e+00 0 1 0
95 1 3.9112563110891516e+00 6.4954785364184309e-01 1.4270956469937390e+00 0 0 0
2174 1 3.7886135773577645e+00 4.4242582651457074e-01 4.3357301088551020e-01 0 1 0
2468 1 9.0879460410390358e+00 3.2576373136669847e+00 1.0684564597129584e+00 0 0 0
870 1 4.1693649651249087e+00 1.6867090703391066e+00 1.2803956929198523e+00 0 1 1
1798 1 4.7646771326844446e+00 1.0038644048975303e+00 6.8601856625696922e-01 0 1 0
2689 1 8.4301573320865018e+00 2.4038677724015867e+00 2.8769114457745437e+00 0 0 0
906 1 7.6857603279036475e+00 2.8160381248606781e+00 2.1935925328255261e+00 0 1 0
1615 1 5.6779231980666331e+00 1.4816863957978026e+00 8.4081227532076730e-01 0 0 1
976 1 5.4789948450337205e+00 2.6847397749114166e-01 4.2278760633269155e+00 0 0 0
1357 1 5.5869477257612683e+00 6.4213200841692453e-01 1.5102676853143111e+00 0 1 1
767 1 6.6369772765292323e+00 2.0040153076896003e+00 1.1558067865814510e+00 0 1 0
1073 1 5.8628800543684747e+00 1.5168725843073272e-01 3.2335366059902131e+00 0 0 0
3468 2 6.8492758831018916e+00 2.7764524272936075e+00 7.5692811772026336e-01 -1 0 1
2132 1 8.9950605852621646e+00 1.5319342224900552e+00 4.1003224936236027e+00 0 0 0
1671 1 8.6341115478539301e+00 4.2815590678344924e+00 9.1628282104599701e-01 0 0 1
1979 1 8.7543828871325857e+00 3.2690467932887186e+00 2.3061319511511669e+00 0 0 0
3771 2 8.2462721699175248e+00 4.0054362369585990e+00 3.6179078252956205e+00 0 1 -1
1066 1 9.5864887904365350e+00 4.1433975003551593e+00 6.4878971226975624e-01 0 0 0
4063 2 8.7543076121439380e+00 6.9172271738163094e-01 2.8975077515730687e+00 0 1 1
559 1 1.7694735890704405e+00 4.4121578152419962e+00 4.0853669802860075e+00 0 0 0
1493 1 1.0053263876672364e+01 1.7501201285724413e+00 3.9498223884212851e+00 0 0 0
2201 1 7.6288652796280694e+00 4.4549634107480909e+00 1.0897558651702317e+00 0 1 0
1132 1 3.6904878341581382e+00 1.0434372129265083e-01 4.7299072520660062e+00 0 0 0
622 1 1.0902351208729253e+00 2.3917606753730647e+00 7.7449618335797699e-01 0 0 1
3750 2 1.4054712361300998e+00 1.5099696819770205e+00 9.1266141208141638e-01 0 0 1
34 1 2.1417793562362708e+00 2.2261675935460050e+00 5.8055547097565041e-01 0 0 0
1065 1 1.7185806125441707e+00 2.1349721941639470e+00 1.5284585577273251e+00 0 0 0
968 1 3.3346771917471125e+00 2.2130241607280539e+00 6.7100557149179829e-01 0 0 1
3708 2 2.5596492506870758e+00 2.0457267138388895e+00 1.9324541466005594e+00 0 0 0
1166 1 2.7008507238035340e+00 2.5576743384167653e+00 1.3540183873021052e+00 0 0 1
3768 2 3.2596673408336336e+00 3.1052081706370829e+00 5.9671339583530303e-01 0 1 0
3688 2 1.7422216036638225e+00 3.6529381046850702e+00 4.5308839430111840e+00 0 1 0
3757 2 4.9899067291339865e+00 1.9604424546104890e+00 1.0193204519746444e+00 0 0 1
1764 1 4.4184069323749942e+00 2.4862263948717058e+00 6.1526329552755565e-01 0 1 0
1617 1 5.6560934050967724e+00 2.5600588093050782e+00 7.3977154752046070e-01 0 0 1
1785 1 6.5048949250264361e+00 8.5616610526704540e-01 2.8090545008266603e+00 0 1 0
1499 1 6.5344243311822838e+00 2.1349344833611137e+00 1.6302656312792776e-01 0 0 1
4116 2 2.9136996345848187e+00 4.8641525150424009e-01 1.2621379459437791e+00 1 0 -1
1505 1 3.0918032341519668e+00 4.0328094013313622e+00 3.6047537265537319e+00 0 0 0
1667 1 9.3431468961674771e+00 7.8002643042736286e-01 2.1339242011817543e+00 0 0 1
500 1 4.6369165590393822e+00 2.0288785503929877e-02 1.0661748647185276e+00 0 0 0
2076 1 7.3869192566506339e+00 2.0991614135446994e+00 3.2167070124506800e+00 0 0 1
1489 1 9.3452257805029433e+00 2.4210495393375298e+00 3.4265405311004553e+00 0 0 0
2275 1 1.0483154828679890e+01 3.9922534607056139e+00 1.3172813122056848e+00 0 1 0
1897 1 7.9586063944463712e+00 5.1021379191041660e-01 1.7739406703235752e+00 0 1 1
1029 1 5.6240697040567840e+00 3.9455919819301188e-01 4.7965719764712395e-01 0 0 0
715 1 2.3084396813239419e-01 4.7872832185372738e-01 2.7563906746577991e+00 0 0 0
2081 1 9.6728132186661373e+00 3.4367468296332193e+00 3.8136233931868349e+00 0 0 0
656 1 2.3653059081371133e+00 3.3198374548999774e+00 5.5771259352373825e-01 0 0 1
2996 1 2.0178591965259778e+00 4.1621125278813809e+00 1.1574648392893889e+00 1 0 0
3587 2 6.5658656170395115e+00 4.7449277925326694e+00 2.2968413578939701e+00 0 0 0
1538 1 8.2522925249865828e+00 1.3874682004312446e+00 3.2969655202675114e+00 0 0 0
668 1 1.9311367939381929e+00 3.1780181563402845e+00 1.5657409140451752e+00 0 0 0
124 1 4.0276003362926698e+00 3.9128281138742858e+00 4.1040336610658263e+00 0 0 0
3764 2 6.9543754661540440e+00 4.5790890669358847e-01 1.7706889271347921e+00 0 1 -1
1019 1 3.9576652178176257e+00 3.4847163402179100e+00 1.0205177634572888e+00 0 0 0
1198 1 3.0167894552846608e+00 3.8597218433331775e+00 1.1741774951677013e+00 0 1 0
3627 2 3.8025677610427877e+00 4.3727139984873409e+00 8.6937120341907692e-01 0 0 1
2159 1 9.1026097796303880e+00 4.4236297107965097e+00 3.9729960499569983e+00 0 0 0
1242 1 3.9642703931362466e+00 1.5468757784917486e+00 1.5750566720578832e-01 0 1 0
567 1 5.0402982032136707e+00 3.5668112571432267e+00 1.1091030459575537e+00 0 0 0
669 1 4.5587916642196387e+00 4.3609886897953167e+00 1.5062417045003229e+00 0 0 1
3865 2 5.1356870195252124e+00 4.4606087909319845e+00 8.6315864010044496e-01 0 0 0
1051 1 4.4990353687105609e+00 4.0880197954119701e+00 3.1021845702849304e-01 0 0 0
2098 1 5.5479393256225524e+00 3.9130920416180994e+00 2.8037442353060432e-01 0 0 1
1858 1 7.2550763618878449e+00 1.9661981401195192e+00 4.3924245469174599e+00 0 1 0
2120 1 1.0186913227539778e+01 2.6267791471154953e+00 4.5589393571971764e+00 0 0 0
503 1 7.1525622540684033e+00 3.5634220293138128e+00 9.4895345492904626e-01 0 0 0
1506 1 6.1530901808227121e+00 3.5189525553354484e+00 1.0977980165767225e+00 0 0 0
1564 1 6.8109773623401573e+00 4.3379142514651710e+00 2.7091661395329975e-01 0 0 1
1572 1 6.5875906846600261e+00 4.4085717059275042e+00 1.5150299993643670e+00 0 0 1
1458 1 6.4484796470751204e+00 1.0780341227385082e-01 1.0988819860145336e+00 0 0 0
253 1 1.9000326206690814e+00 3.1706125718450190e-01 1.3612117075752301e+00 0 1 0
3730 2 1.0726133123357716e+01 3.2307962161783701e+00 1.7489165247541356e+00 0 0 -1
1470 1 8.1472254362402872e+00 3.4824065621841158e+00 1.4643136488859534e+00 0 0 0
1167 1 2.3456020960018318e+00 2.1685703987661866e+00 4.5397462630662133e+00 0 0 0
1485 1 9.2855804594877736e+00 1.3997647587412314e+00 2.9947575014806715e+00 0 0 0
2642 1 1.0472246964836625e+01 2.5698724419178456e+00 2.3251689124242034e+00 0 0 0
1455 1 7.9809584223337531e+00 2.0622111533142704e-01 2.9638393795398352e+00 0 0 0
1441 1 9.1702339491082601e+00 3.0381346576216521e+00 8.3164056670804926e-02 0 0 0
2250 1 8.2138678790905661e+00 2.4345125501782814e+00 3.8435511067733672e+00 0 1 0
1000 1 1.2486140942387218e+00 1.1117946572128685e+00 1.6881400529926069e+00 0 0 0
4214 2 7.5346850576919233e-01 1.1929086837532097e+00 2.3813410344279546e+00 1 0 0
2555 1 1.0808173978093430e+01 3.6260398206888773e+00 3.9207920178121123e+00 0 0 0
159 1 2.0837784060891176e+00 7.1956281348340956e-01 2.3448817320814128e+00 0 0 0
992 1 1.2883603563219572e+00 8.5858821649871109e-01 3.0183245623744388e+00 0 0 0
2854 1 9.2073342674336054e+00 2.4643338000606603e+00 4.5037942501685846e+00 0 1 0
1134 1 2.5505752229443877e+00 1.5805715817644694e+00 2.6561731016213086e+00 0 0 1
1040 1 3.3182509473280941e+00 1.7029657342787150e+00 1.8154130793851311e+00 0 0 0
1513 1 5.9858120701811082e+00 4.7545830426463151e+00 6.9991505170647716e-01 0 0 0
1783 1 4.3141324693236678e+00 1.0833433351728141e+00 2.3038309676405597e+00 0 1 0
3878 2 4.7945941486856629e+00 8.2927211092677611e-01 1.6350810495115797e+00 0 0 1
631 1 3.6491119031253776e+00 1.4451141689511391e+00 2.9357288686363270e+00 0 0 0
3756 2 6.3610656941384267e+00 1.0050651940822555e+00 1.0364794931261783e+00 0 0 1
1098 1 7.4225092599408020e+00 2.6702832064207622e+00 6.6465799744838502e-02 0 0 1
575 1 4.5606519212982137e+00 1.1277472041775309e+00 3.2808759120378035e+00 0 0 0
722 1 5.1105647054273406e+00 1.6108271287319547e+00 1.7905906787343944e+00 0 1 0
1147 1 5.4227202089216622e+00 8.7056036112611945e-01 2.6338945511059122e+00 0 0 1
1351 1 6.4090606940285175e+00 1.2649668781248951e+00 1.8685019927218400e+00 0 1 0
3775 2 6.6888691042645023e+00 1.6741776416279488e+00 2.9339360135283679e+00 0 1 0
548 1 4.8581348359029519e+00 3.4669482626276538e+00 4.6436290687229924e+00 0 0 0
3588 2 1.4456336224630497e+00 3.5910367890329127e+00 3.4494734858859948e+00 0 0 0
3503 2 7.2196150887946322e+00 2.6673083766752383e+00 3.9179766663373017e+00 -1 0 2
1651 1 6.8869855227313845e+00 2.5016653100042655e-02 3.3455375915183150e+00 0 0 1
1684 1 1.0025020649833808e+01 4.4453746556279956e+00 3.3661468718249234e+00 0 0 0
2538 1 9.5170460519219819e+00 2.1858662471652179e+00 1.0956833107015507e+00 0 0 0
1622 1 7.4274948245223102e+00 4.4299739362016792e+00 3.6965778362649537e+00 0 0 0
1855 1 7.1862208317060592e+00 8.7716463097013153e-01 1.1295368482700894e+00 0 1 1
1471 1 9.6564663950316287e+00 7.2850796993380373e-01 4.4470632388870506e+00 0 0 0
1965 1 8.4432936029771817e+00 2.3374574431053232e+00 1.7390468906007022e+00 0 0 0
4006 2 1.0424286198389638e+01 3.5316757862734836e+00 4.6330564087416031e+00 0 0 0
3793 2 7.1674204011282212e+00 2.1182202712796966e-01 5.8949332261051568e-01 0 1 0
1376 1 1.5056216535569473e+00 1.7573670834216166e+00 2.4948419633110324e+00 0 1 0
3606 2 1.3866415898399902e+00 2.6193520206458825e+00 2.2922848355273766e+00 0 0 0
2941 1 2.3181325258994967e+00 2.7254536236685034e+00 2.4109955609096447e+00 1 0 0
3608 2 2.1451123128863814e+00 2.2502543766418288e+00 3.1244671136128335e+00 0 0 0
3128 1 1.4750655057216786e+00 2.7512532754163486e+00 3.1861846788066455e+00 1 0 0
555 1 2.3643120525177910e+00 1.3164719240448737e+00 1.4615432382921201e+00 0 0 0
505 1 3.6996503313613016e+00 2.7089802093300279e+00 1.6418903563367424e+00 0 0 0
663 1 3.2677119432843993e+00 2.4336085478481069e+00 2.6267465206911904e+00 0 0 0
3686 2 2.9515873499809988e+00 3.1373536997239033e+00 1.9576021657919456e+00 0 1 0
1446 1 4.1595253970668669e+00 3.1529473426014509e+00 2.5282589072085102e+00 0 0 0
568 1 4.2038379040289575e+00 2.0662313849905329e+00 2.2709705801978086e+00 0 0 0
3703 2 4.4746870444555427e+00 3.4872292435445358e+00 1.7598984348946194e+00 0 0 0
3533 2 4.9683147969511614e+00 1.7126874326520742e+00 2.7314361904940916e+00 0 1 0
1462 1 4.7948231331199622e+00 2.6691473873885592e+00 1.5951787588568598e+00 0 0 0
1511 1 5.1447400588236283e+00 2.5658742292894896e+00 2.5492748680629429e+00 0 0 0
1561 1 5.6431920923245658e+00 3.3275163004888579e+00 2.0350592747161467e+00 0 0 0
2197 1 5.8875874419849863e+00 1.7968853787377632e+00 2.6710837934327718e+00 0 1 0
566 1 5.8306739934714509e+00 2.3099146380709561e+00 1.6920141461382567e+00 0 0 0
1437 1 6.6780052567385582e+00 2.9567689090285256e+00 1.7895529204730549e+00 0 0 0
2101 1 6.9511689899150078e+00 2.1209836514400022e+00 2.2619726274058372e+00 0 0 1
3946 2 6.2226210073792485e+00 2.5801065709523510e+00 2.4623999883067715e+00 0 1 0
1721 1 5.9177977059397353e+00 2.8911780342354954e+00 3.1738091338998191e+00 0 1 0
2421 1 6.8905286479168275e+00 3.0820357956560218e+00 2.9286203929399339e+00 0 0 0
1766 1 4.8337712261519634e+00 6.9154869183747844e-02 2.1178499700600888e+00 0 1 0
1076 1 1.0123614347856575e+01 3.1638821727643509e+00 6.8501494231687787e-01 0 0 0
599 1 2.2695558532200901e+00 8.7855001986629710e-01 3.3872238581751546e+00 0 0 0
991 1 7.4687850695199849e+00 1.2078232122128330e+00 2.5845331584847604e+00 0 0 0
2145 1 8.6617146984370788e+00 3.2588459017889773e+00 3.4110185023972606e+00 0 0 0
1689 1 8.6087970153150444e+00 3.4732464237513359e+00 4.4453172049498573e+00 0 0 0
3631 2 2.7545282900384587e+00 4.6487272714886707e+00 9.6316307007651147e-01 0 0 1
1491 1 2.6691554111631706e+00 6.1952247896162826e-01 4.6822136206807539e+00 0 0 -1
2176 1 8.5789119988518596e+00 4.6178069273143346e-01 3.8736320899797825e+00 0 1 0
4056 2 1.0249576681015487e+01 3.6022738466006308e+00 3.2478815387787341e+00 0 0 0
1001 1 6.4846730410990618e+00 3.3174089327187115e+00 1.0683596040136004e-01 0 0 0
1682 1 6.5815160838163305e+00 3.7589679038043955e+00 3.7179107777590916e+00 0 0 0
1039 1 2.3907099588578395e+00 3.9485049191265573e+00 2.1144870822360411e+00 0 0 0
1621 1 6.4990710164420529e+00 4.6625444231490203e+00 3.1622673443755560e+00 0 0 0
3619 2 2.1704785457364939e+00 3.4451117700853926e+00 2.8978357859486414e+00 0 0 1
586 1 1.4079110518552462e+00 3.5322675235721479e+00 2.4875617348596024e+00 0 0 0
1022 1 2.2661623110360556e+00 4.2485828633540423e+00 3.0672943468444789e+00 0 0 -1
1160 1 7.6044996833279361e+00 1.6436366118147576e+00 1.6420418076830576e+00 0 0 0
1440 1 3.1052094134885957e+00 3.4564828638710816e+00 2.6744094617794825e+00 0 0 0
664 1 3.7476966972830819e+00 3.9080070723122806e+00 1.9598518589315159e+00 0 0 0
3040 1 2.4145299800803146e+00 4.3934418684276011e+00 2.3458218594615854e-01 1 0 0
3121 1 8.1446584818961405e+00 4.4134921353668535e+00 4.3846450019988206e+00 0 0 0
994 1 3.9887465061195844e+00 4.0791099941107509e+00 2.9875332194291944e+00 0 0 0
1428 1 5.6128148229397814e+00 4.2858948950797116e+00 1.7061577736342821e+00 0 0 0
1472 1 8.2568672133955694e+00 4.4715834408304858e+00 2.0575655737347738e+00 0 0 0
534 1 5.6642557723721527e+00 3.9224606408493838e+00 3.2044100233924908e+00 0 0 0
1271 1 4.8677889295999197e+00 3.9687676934877523e+00 2.4315403957144586e+00 0 1 0
952 1 7.5896571347461439e+00 2.5533328879599315e+00 1.1432661076561772e+00 0 0 0
3838 2 5.7778757256444315e+00 4.4470408741343190e+00 3.8922290418742631e+00 0 0 0
2946 1 8.0722133061522907e+00 4.2991730049663346e-01 6.4379647104584159e-01 0 0 0
1072 1 7.3451350913553766e+00 3.8280872506859502e+00 2.0514295436799048e+00 0 0 0
1535 1 6.3799404132538022e+00 3.9089311521024546e+00 2.4143152408103536e+00 0 0 0
3964 2 6.9968076604170752e+00 3.9767948836049265e+00 2.9603416356239842e+00 0 1 0
3127 1 2.1909950633777862e+00 3.4633699352452529e+00 3.8523984060527319e+00 1 0 0
3602 2 6.4119164952839061e+00 5.8157526870928022e-01 3.7446738616326871e+00 0 0 0
964 1 9.1846635989159591e+00 4.0596595087611851e+00 1.8298618729819212e+00 0 0 0
1425 1 7.5955285249584232e+00 3.4728732318779580e+00 3.8864159816738564e+00 0 1 0
574 1 2.6711910651686033e+00 4.0565651910998888e+00 4.5290445562628943e+00 0 0 0
817 1 1.0228710487048800e+00 1.9844045234236998e-01 2.1981156004901825e+00 0 1 0
3460 2 7.7859372697418880e+00 2.9199404134462474e+00 3.1414231427084771e+00 -1 0 0
2823 1 1.1001012262387375e+01 4.4013395773155528e+00 3.0659848195234432e+00 0 1 0
1906 1 6.1848606949720022e+00 8.0755948896580232e-01 4.6844033147648263e+00 0 1 0
2428 1 1.0642819641304675e+01 4.0743766501093646e+00 3.1513728464915908e-01 0 1 1
2055 1 1.0509424079090916e+01 2.3869512040532497e+00 1.3336581490834849e+00 0 0 1
3676 2 7.8988412226024014e+00 1.9722393447689941e+00 2.3680372707145403e+00 0 1 1
751 1 3.8286400399751157e+00 4.2204355308841024e-01 2.8956284027346544e+00 0 1 0
1584 1 7.2301810644251518e-01 6.1263493870762653e-01 3.8748409166890387e+00 0 0 0
2386 1 1.0073019576515177e+01 1.4569056053295901e+00 1.8351853906307363e+00 0 1 1
652 1 1.6691575262756517e+00 8.2369802201252473e-01 4.2082893623419411e+00 0 0 0
1439 1 1.0192236095492108e+01 3.9742297833004478e+00 2.4477533413768673e+00 0 0 0
3030 1 1.1354333614787150e+01 4.7483540605632211e+00 1.6016569285977444e-01 0 0 0
4264 2 3.0239194817609256e+00 7.8921564820416057e-01 2.9986220800546635e+00 1 0 1
1054 1 3.2467810303583740e+00 7.4318555501728545e-01 3.8299059704161191e+00 0 0 0
481 1 2.8616786044266584e+00 1.6897973021977752e+00 3.5955888090885262e+00 0 0 0
235 1 3.9929205316607419e+00 1.4956584286269303e+00 4.0228941568119039e+00 0 0 0
4242 2 9.1881211145874975e+00 1.5782681657212247e+00 1.7234252304698294e+00 0 0 1
3856 2 5.2626636917621035e+00 7.4614037860913107e-01 3.5354780633910288e+00 0 0 0
2360 1 5.1109635536242575e+00 1.2965188763037276e+00 4.2477656638271517e+00 0 1 0
30 1 4.9502160157701098e+00 4.2468185286035665e+00 3.9090686862692907e+00 0 0 0
4281 2 9.8771546966198098e+00 2.4315697688253386e+00 2.3015785195043958e-01 0 1 0
1950 1 7.0538058498016323e+00 1.1772865738809282e+00 3.6482282440230089e+00 0 0 0
4029 2 6.4077140490014912e+00 1.5113500064552254e+00 4.2436120638138126e+00 0 1 0
580 1 5.9376399085038027e+00 1.2870949305408519e+00 3.5288386853302267e+00 0 0 0
878 1 7.1540375896851431e+00 4.8107108887070132e-01 4.4077128875099074e+00 0 1 0
1103 1 7.9316974233730058e+00 1.1684616682253401e+00 4.3293167907967787e+00 0 0 0
4147 2 1.0899353773467384e+01 4.3747798518310566e+00 2.0860158989203734e+00 0 0 0
1380 1 6.1665778506982853e+00 8.3895007382036757e-02 2.1460286176024916e+00 0 1 1
550 1 3.1552736028985038e+00 4.5764028202325688e+00 2.5659794642125697e+00 0 0 0
1519 1 8.4753071243331686e+00 1.3591679472090832e+00 2.2079360222036475e+00 0 0 0
1711 1 8.1787179266200845e+00 3.4314787340686892e+00 4.0621969494959120e-01 0 1 0
1359 1 6.4271998666838455e+00 1.0499304334964563e+00 1.9475192937077015e-01 0 1 1
2544 1 1.0146396320266390e+01 4.3121042457779035e+00 4.3815467983984897e+00 0 0 0
2056 1 9.8021828334808792e+00 1.2438154850133067e+00 8.8385907092890004e-01 0 0 1
1117 1 3.3876473085533059e+00 3.9457539923947733e+00 2.1324545433715278e-01 0 0 1
2084 1 7.8581625245466800e+00 4.4392381395729039e+00 4.6610590413720288e-02 0 0 1
1457 1 8.4308587151451420e+00 4.6733539361348466e+00 3.0918412568791380e+00 0 0 0
2063 1 9.1616723299730971e+00 4.0946037834808635e+00 2.9161548383191476e+00 0 0 0
1983 1 1.0462948898630746e+01 2.7149739792454470e+00 3.3576098906493721e+00 0 0 0
1165 1 1.7412549562184716e+00 1.8268958728514122e+00 3.6802784671537512e+00 0 0 0
802 1 1.4933617619159252e+00 2.7479371040439133e+00 4.3113122237901278e+00 0 1 0
572 1 2.7167932583607755e+00 2.7074161074932461e+00 3.5173949590296960e+00 0 0 0
1988 1 9.8719461551566106e+00 3.1915732984681178e+00 1.6787723838603335e+00 0 0 0
2631 1 9.6574346537742350e+00 3.1625945608516788e+00 2.8056557776926021e+00 0 0 0
3719 2 3.0817076038633515e+00 3.3068033028244486e+00 4.1150651564307612e+00 0 0 -1
4119 2 3.5014291090714096e+00 2.2375091040175379e+00 3.4686741306446160e+00 0 0 0
1007 1 3.3455783907903331e+00 2.4684218651206442e+00 4.3194508328690473e+00 0 0 0
2164 1 3.7527414820529810e+00 3.0788159608303260e+00 3.5132275424657431e+00 0 0 1
3884 2 4.0319472416289628e+00 3.0640551755267613e+00 4.3698079314920202e+00 0 0 1
1062 1 4.3469076815494105e+00 2.2056110398229309e+00 3.2412430460281376e+00 0 0 0
1194 1 5.3197176243800985e+00 2.0709186322897666e+00 3.5130529478224855e+00 0 1 0
814 1 4.6159568620430038e+00 2.4537688841236500e+00 4.2428236019084959e+00 0 1 0
1081 1 4.7676459102953128e+00 3.3383227582794923e+00 3.4693243938740896e+00 0 0 1
860 1 5.5765570033994321e+00 3.0194686613045612e+00 4.1240097248726970e+00 0 1 1
987 1 5.0638519960502260e+00 1.8704477238325097e+00 9.5555287832868582e-02 0 0 0
1678 1 7.8873428833421668e+00 3.6976435553022946e+00 2.9177345930503851e+00 0 0 1
1071 1 5.7880449462198147e+00 2.1110909391964743e+00 4.5768195667846818e+00 0 0 -1
1573 1 6.4559918034540891e+00 2.1624823026675757e+00 3.6977691762526597e+00 0 0 0
537 1 6.5298082922030787e+00 2.9659523635119278e+00 4.5253495349136346e+00 0 0 0
1644 1 7.1336522934053086e+00 3.9171228009612200e+00 4.7185173406692194e+00 0 0 0
4041 2 7.6381791198259101e+00 5.6736018187508408e-01 3.6322027380846515e+00 0 1 0
2513 1 8.5127311867117239e+00 1.3999133931067378e+00 1.1301731168501576e+00 0 0 0
386 1 4.4310042629960504e+00 5.1068408273861110e-01 4.1145586397675249e+00 0 1 0
3565 2 7.2850700447380614e+00 4.8154552435363946e+00 4.7428728263570328e+00 0 0 0
1358 1 3.0923132642082867e+00 7.6606235354475327e-01 2.1647172402604604e+00 0 1 1
1212 1 9.4262286496935594e+00 7.0594048036215973e-01 3.0809937371434993e-02 0 1 0
543 1 8.3894476286807418e-01 1.6253030949951868e+00 4.1680033850185056e+00 0 0 0
818 1 1.7548251317724035e+00 1.2715466756657443e-01 2.3350904709692658e-02 0 1 0
1963 1 7.7525678420232911e+00 2.9414824673094868e+00 4.7827404954599686e+00 0 0 0
1913 1 3.1133288717578793e+00 1.5138068623652463e+00 4.6304514264351058e+00 0 1 0
2649 1 1.1355216107711977e+01 4.5142831596935276e+00 4.1120242140299004e+00 0 0 0
1818 1 4.7891759899709605e+00 7.6716355386542825e-02 3.1924556223254834e+00 0 1 1
50 1 3.4956224978958810e+00 4.8202587106153301e+00 1.4750415749288803e+00 0 0 0
1973 1 1.1242437945853428e+01 4.8009616408563334e+00 1.3135202395396259e+00 0 0 0
508 1 4.8943629289359603e+00 4.7984177335547979e+00 3.0354540107117414e+00 0 0 0
1050 1 4.9867431119509247e+00 3.0857233102197332e+00 4.1417562498469888e-02 0 0 0
2522 1 9.9572994182920649e+00 4.6193973122245922e+00 6.7549459467943009e+00 0 0 0
370 1 2.0452886046099006e+00 3.6627048988345362e-01 8.0081774205216263e+00 0 1 0
186 1 4.0812330516384847e+00 4.2167233300156850e+00 8.2946748719011048e+00 0 0 0
1634 1 8.0760092707702125e+00 4.0113728883433648e+00 7.6216951426294601e+00 0 0 0
1504 1 6.4425198634116931e+00 4.6731935648653247e+00 5.2195982806681975e+00 0 0 0
56 1 2.8227871477335897e+00 1.7526829803016588e+00 9.5141304588772790e+00 0 0 -1
2156 1 1.0705789091030848e+01 3.5070182427146248e+00 7.7661039592533951e+00 0 0 0
1129 1 9.7094218334157620e+00 3.8649165689646425e+00 7.4920045808850322e+00 0 0 0
3364 1 7.9103710503427846e+00 3.2191504088795486e-01 6.1498096257641732e+00 0 1 0
1184 1 5.9275702909919303e+00 4.5542587288492724e+00 6.2005670051708854e+00 0 0 0
889 1 6.5323335109112817e+00 1.6878970133255971e+00 5.1408382586049202e+00 0 1 0
2524 1 1.0849433938858498e+01 3.2001354436940970e+00 6.6959490479385870e+00 0 0 0
538 1 5.5147396956815671e+00 4.6307677271108572e-01 6.5569965342219234e+00 0 0 -1
970 1 4.4720166177355143e+00 4.7187113521438100e+00 4.9262208222778554e+00 0 0 0
1527 1 9.7888069514035010e+00 4.5948425414917038e+00 9.3783201804217988e+00 0 0 -1
913 1 1.8540395094681785e+00 1.5631108751196172e+00 6.1371443161183485e+00 0 1 0
706 1 2.5092677024539339e-01 5.8069680459341844e-01 5.7679571367498754e+00 0 0 0
1549 1 9.2566861466533901e+00 1.5032094954861692e+00 5.2088381720722055e+00 0 0 0
3611 2 3.3570726295331621e+00 7.7220701625061938e-01 5.1377042623308808e+00 0 0 1
3752 2 2.5028525734650873e+00 1.8785552206650724e+00 5.3307687432386484e+00 0 0 0
526 1 2.7023543362146873e+00 1.1383826477982484e+00 5.6310105642162540e+00 0 0 -1
1080 1 3.6757609168983327e+00 1.5637563743576370e+00 5.6853240148265298e+00 0 0 0
2364 1 1.0295628542807602e+01 2.3892254411045468e+00 6.3169981664445372e+00 0 1 0
3546 2 9.5169559955171792e+00 3.2221032886516108e+00 5.7936301360503597e+00 0 1 0
3918 2 2.4506530409413467e+00 9.0648869384880792e-01 9.4273887695143603e+00 0 1 -1
1498 1 3.2534982208767578e+00 7.2558764114581542e-01 6.4581989289216839e+00 0 0 0
1683 1 4.6118987712584936e+00 9.8475257844678976e-01 6.3720588607520039e+00 0 0 0
1199 1 4.8856340646614074e+00 1.8293810777230231e+00 5.1845650091330358e+00 0 1 0
4081 2 4.1080656582526487e+00 3.9442385226400076e+00 9.2038064733416096e+00 0 0 -1
2502 1 1.0014826507157995e+01 1.3819767849762763e+00 5.9543410626064794e+00 0 0 0
1349 1 6.0107315322303698e+00 9.5351551944057467e-01 5.7764026176236465e+00 0 1 0
676 1 1.3934111863210985e+00 3.2329428773119981e+00 5.2826124621940735e+00 0 0 0
2044 1 6.5962134851482812e+00 1.2683531425028419e-01 5.2722866410598508e+00 0 0 0
1654 1 6.6347243664570676e+00 1.7918016593936641e+00 6.2545963656101629e+00 0 0 0
1907 1 6.9550870563455414e+00 6.4190269862901073e-01 6.3812678207386897e+00 0 1 0
1099 1 2.1462587231370840e+00 4.3011510155598982e+00 6.4923582420039132e+00 0 0 0
4175 2 8.8405315516846645e+00 1.8716137885479973e+00 7.7598578025216520e+00 0 1 0
2593 1 1.0855309378513081e+01 4.1841149275577525e+00 6.2536640375764847e+00 0 0 0
1955 1 7.9661622856789442e+00 4.1443064083950940e+00 6.3867470866159479e+00 0 0 0
4177 2 3.9500291701492358e+00 2.0241501911125024e+00 4.9625351040009624e+00 0 1 0
1612 1 8.4207091294888272e+00 2.9598322906433117e-01 7.9432753128222648e+00 0 0 0
3881 2 9.1005105955659431e+00 3.4404640914858158e+00 8.8842737277073454e+00 0 0 0
695 1 7.6480248386900662e-01 1.6295515757192685e+00 5.9184372338454807e+00 0 0 0
1407 1 9.1443457900694725e+00 2.5199167314830064e+00 8.7812134025764692e+00 0 1 0
2753 1 9.1538017955001134e+00 1.0421313376051433e+00 7.6961633752575880e+00 0 1 0
3707 2 5.8498154363654438e+00 1.6565428766775514e+00 9.4488866391093165e+00 0 0 -1
1180 1 2.1035086056557528e+00 2.5458379270043014e+00 5.6619802317400199e+00 0 0 0
4123 2 1.0472771171143744e+01 3.9586731014775860e+00 7.0348691450167058e+00 0 0 -1
4220 2 7.7689257519200234e+00 2.1068190877965924e+00 7.4235943975936305e+00 0 0 -1
675 1 1.8298946715492939e+00 3.3042708348878818e+00 6.2590713427908531e+00 0 0 0
2663 1 9.7726822603255030e+00 8.3947401446465209e-01 6.9022082206056892e+00 0 0 0
1114 1 3.2449628634469789e+00 2.3899662050549191e+00 5.3182946027863824e+00 0 0 0
1187 1 3.9012031079334015e+00 2.4768586183194725e+00 6.1397628572891376e+00 0 0 0
659 1 2.9019821843853189e+00 3.0683487820048110e+00 6.1162171936499954e+00 0 0 0
3713 2 3.6844135082388139e+00 3.1613149926192925e+00 5.6555291833298025e+00 0 0 0
698 1 2.7755114331171322e+00 1.9820393035655199e+00 6.2384995968070491e+00 0 0 0
1177 1 4.3157835150064727e+00 2.7542829897447012e+00 5.2215580581874610e+00 0 0 0
1853 1 4.8779370027546456e+00 2.1560668989856611e+00 6.2064404745124140e+00 0 1 1
3123 1 4.8523887561880610e+00 3.1381489827727114e+00 6.0134896114201082e+00 1 0 0
3577 2 5.7725670832275213e+00 2.7920817241818501e+00 6.0803904670585078e+00 0 0 -1
2060 1 9.1600834173924017e+00 2.7444506129610970e+00 6.4140095198729012e+00 0 0 0
1647 1 5.7930158648137411e+00 2.0152613733608913e+00 5.7373964400164459e+00 0 0 0
1049 1 6.5058781442580944e+00 2.7326874944082578e+00 5.4667478179109521e+00 0 0 0
2196 1 7.2874798266173633e+00 3.3522274333948880e+00 5.7465818875642789e+00 0 1 -1
1153 1 6.5194420474529373e+00 3.0239749407512395e+00 6.4516260975250956e+00 0 0 0
1171 1 8.1910803006917821e+00 3.8336021933207749e+00 5.2993118006392690e+00 0 0 0
1676 1 5.5662064849460249e+00 3.0153890351552559e+00 5.2482235879015544e+00 0 0 0
517 1 4.0189687198469342e+00 4.7988819171294166e+00 9.2577200172972045e+00 0 0 0
1188 1 7.0719569365187791e+00 4.6210748831456225e+00 8.9106110182286216e+00 0 0 0
227 1 3.2799900171603138e+00 3.8008843092072104e+00 8.8603894605290119e+00 0 0 0
2042 1 9.0487514409981440e+00 1.1633569607919136e+00 6.2139603522983871e+00 0 0 0
621 1 4.0213690962520126e+00 4.5468364972692787e-01 5.6815393923640354e+00 0 0 0
4122 2 5.6709320841725042e+00 1.4193100734259883e+00 5.1086344687773302e+00 0 0 0
3728 2 8.9625702612037301e+00 4.2362514043799155e+00 7.6334322987097742e+00 0 0 0
784 1 7.1236852825232315e+00 1.4921009469924609e+00 7.1756589313121903e+00 0 1 0
601 1 2.1657342601690837e+00 4.0305906265295235e+00 5.4675602225283875e+00 0 0 0
1093 1 3.2789818880619164e+00 3.9671920779646124e+00 5.7345748862240855e+00 0 0 0
3787 2 6.2706462207689162e+00 4.1186069042359259e+00 6.9571855686018331e+00 0 0 0
2088 1 4.2627615848058324e+00 3.8203848897927548e+00 5.4517628824029734e+00 0 0 0
127 1 4.0032134427395683e+00 3.5650127022438003e+00 6.4300988065796849e+00 0 0 0
3749 2 7.3339660738162369e+00 4.1020488885497333e+00 8.1582429468697448e+00 0 0 0
1085 1 5.3578998033138117e+00 4.0734250511325394e+00 5.5115406445707880e+00 0 0 0
3016 1 4.7777465027055692e+00 4.3130687785154249e+00 6.3578330039382847e+00 1 0 0
2546 1 8.6649499365764093e+00 4.6734832376039543e+00 6.9911616903663161e+00 0 0 -1
1030 1 6.3278466812357124e+00 3.7331295981802426e+00 5.6010626555849949e+00 0 0 0
3839 2 9.3498384207535494e+00 2.7889288229386938e-01 8.1246235143373386e+00 0 0 0
1115 1 6.9943802737429044e+00 4.1036051096314115e+00 6.4121542780599414e+00 0 0 0
1635 1 8.5143026673362030e+00 2.0981665901450635e+00 5.8680103989023928e+00 0 0 0
2161 1 8.8327464530311097e+00 3.6300091465818820e+00 7.0506573504252437e+00 0 0 0
1694 1 9.0511181298260972e+00 4.3600971656741736e+00 5.0497601544939945e+00 0 0 0
624 1 5.7668700765182050e+00 2.5409424171178436e+00 9.3298560257571417e+00 0 0 0
1090 1 4.1408822468386273e+00 1.0698610748549706e+00 4.9163658838211202e+00 0 0 0
3961 2 3.1335498777796209e+00 4.6057629351379541e+00 9.3073607204393074e+00 0 0 0
3989 2 1.0498546395781478e+01 3.1591551503728263e+00 8.5813886723918777e+00 0 0 -1
2043 1 8.4307748022945557e+00 1.8681660056982277e+00 6.9529256744207464e+00 0 0 -1