LAMMPS data file via write_data, version 12 Dec 2018, timestep = 535920

4320 atoms
2 atom types

0.0000000000000000e+00 1.9309999999999999e+01 xlo xhi
0.0000000000000000e+00 1.9309999999999999e+01 ylo yhi
0.0000000000000000e+00 9.6549999999999994e+00 zlo zhi
-3.6302800000000026e+00 0.0000000000000000e+00 0.0000000000000000e+00 xy xz yz

Masses

1 1
2 1

Atoms # atomic

1913 1 4.7371151074963358e-01 1.1902518574388079e+00 4.8237497288274991e+00 1 1 0
1644 1 4.8953561395344458e+00 3.7235991332138410e+00 4.6201656309555030e+00 0 0 0
555 1 1.5374349110416186e-01 1.2039083757591607e+00 1.5436612858764589e+00 0 0 0
1563 1 4.5511150055225214e+00 6.7399818079706220e-01 1.3734312025127282e-01 0 0 1
3918 2 2.7671854822728786e-01 1.0282440186530941e+00 2.2709935982518775e-01 1 1 0
3500 2 7.3837387401010508e+00 1.0071341818227637e+00 4.3729480353305883e+00 0 0 1
1380 1 3.5694659417440135e+00 2.9899420721212611e-01 1.6682496472031212e+00 1 1 1
1651 1 3.8731327834796621e+00 2.4296460226695130e-02 3.6058989602325546e+00 0 0 1
3688 2 -5.2630322552797038e-01 3.9665629929323711e+00 4.5425983940297785e+00 1 1 0
1054 1 4.6012623040849043e-01 8.5353478657098480e-01 3.6185072902461406e+00 0 0 0
668 1 -3.1130943748431156e-01 3.2676890645624885e+00 1.4916520424616226e+00 0 0 0
34 1 1.3311766173595435e-01 2.5734957676602419e+00 7.6365199536556405e-01 0 0 0
1134 1 6.8902014426949243e-01 2.3070335857955913e+00 1.7573762132726209e+00 0 0 1
3608 2 8.1623884011054193e-02 2.0322862422709038e+00 2.3374677785990858e+00 0 0 0
1167 1 1.5773160397009134e-01 2.1105038192108512e+00 4.2650761660241381e+00 0 0 0
481 1 -3.8823573219893825e-03 1.7114896511317474e+00 3.2958662415581061e+00 0 0 0
3127 1 -1.4945041385350932e-01 3.8753651483727798e+00 3.7617012822073201e+00 1 0 0
2544 1 7.7804138489739287e+00 4.2854102135829724e+00 4.6998485596667505e+00 0 0 0
3708 2 5.7182544140456648e-01 1.8087845374011171e+00 9.9058471132128734e-01 0 0 0
2941 1 7.2570901078769512e-02 2.8993704724526319e+00 2.3828612568882201e+00 1 0 0
1554 1 9.7292098592068132e-01 1.0941687928209705e+00 7.5517835864513971e-01 0 0 1
572 1 1.3001716375030614e-01 2.9489603790476888e+00 3.5270880315643609e+00 0 0 0
751 1 8.2008149513672324e-01 2.6665664546745038e-01 2.7445232438193421e+00 1 1 0
3619 2 -2.1421301441895357e-02 3.6536899244234569e+00 2.9747159409796788e+00 0 0 1
656 1 1.1576991516742552e-01 3.6908658827349430e+00 5.7161021296324155e-01 0 0 1
2996 1 -2.6354247157530131e-01 4.4801371470188727e+00 1.2552737976258315e+00 1 0 0
1022 1 4.2590083926766886e-02 4.5912693957815689e+00 3.0703261916574287e+00 0 0 -1
1040 1 1.3672628849232342e+00 1.6413399356737690e+00 1.5138785533825454e+00 0 0 0
631 1 7.7835185223889058e-01 1.4343958726256945e+00 2.5764028343301124e+00 0 0 0
1039 1 2.1859746317834339e-01 3.9961514394242288e+00 2.0891341060684780e+00 0 0 0
4264 2 1.4756200022049595e+00 1.7785726563692608e+00 3.0796767936340013e+00 1 0 1
1166 1 7.4145270408796704e-01 3.2631342269143002e+00 1.3996870684174145e+00 0 0 1
1358 1 9.6761204437428094e-01 5.7452105134564802e-01 1.6977597803355542e+00 1 1 1
4119 2 9.0027480472084143e-01 2.5463478218437356e+00 3.7989399056093531e+00 0 0 0
3719 2 4.9192029170993867e-01 2.8775624565130822e+00 4.5659184055350517e+00 0 0 -1
663 1 8.2360610890183272e-01 2.4125124468866876e+00 2.9356740433398745e+00 0 0 0
235 1 1.0136067711718380e+00 1.7485256016613049e+00 3.7762492315452518e+00 0 0 0
968 1 1.1564178600462669e+00 2.4718939354009488e+00 7.8941443225942265e-01 0 0 1
3768 2 1.0315247727623928e+00 3.2702392659426103e+00 5.6972520335100163e-01 1 1 0
1198 1 7.3263761085345802e-01 4.2702250013024736e+00 1.1230827856359809e+00 1 1 0
987 1 2.9024387381162162e+00 1.9789191854142976e+00 1.3548457495841820e-01 0 0 0
1505 1 9.2764340701327086e-01 4.2602940853971365e+00 3.5590734708201195e+00 0 0 0
1007 1 1.4148005654278184e+00 2.5297860793575815e+00 4.4863179998908160e+00 0 0 0
3686 2 1.1865139311528416e+00 2.9490508826440842e+00 2.2609706536292653e+00 1 1 0
1440 1 7.8299567122986835e-01 3.4558306623239208e+00 2.8506135813978162e+00 0 0 0
2164 1 1.0295547024343974e+00 3.3628975163430352e+00 3.9975600614390636e+00 0 0 1
1783 1 1.7523668772063157e+00 1.0771333644185215e+00 2.3537570031516206e+00 1 1 0
505 1 1.8282036399521751e+00 2.7546796712426596e+00 1.4891403655028359e+00 0 0 0
568 1 1.6536065124547088e+00 2.2114741223304706e+00 2.3378422874075691e+00 0 0 0
575 1 1.4875992555224129e+00 9.3603839165953873e-01 3.2909649152763105e+00 0 0 0
1798 1 1.8004581434800675e+00 3.6332242137243970e-01 6.0455707175981066e-01 1 1 0
1062 1 1.7777098764518373e+00 2.5360881593094944e+00 3.4686103320487329e+00 0 0 0
664 1 1.3883958355641157e+00 3.8478032941197235e+00 2.0190213835663071e+00 0 0 0
3856 2 2.3315025296982013e+00 7.6856713662374110e-01 3.2077014621041879e+00 0 0 0
1019 1 1.6425382777900166e+00 3.6434218111971481e+00 1.0114079391888611e+00 0 0 0
3884 2 1.8057477896559320e+00 3.3423181911346500e+00 4.5770605181627193e+00 0 0 1
1446 1 1.8718060375425289e+00 3.2969918519569164e+00 2.7452115528799150e+00 0 0 0
124 1 1.4655011423975122e+00 4.1608449401139627e+00 4.5198721036942153e+00 0 0 0
3627 2 1.6435267100536202e+00 4.4858195416659692e+00 8.8445965060265708e-01 0 0 1
3878 2 1.6773769948059194e+00 8.6214984222833413e-01 1.2592091983926466e+00 0 0 1
2360 1 2.0828630095181904e+00 1.8010505679617672e+00 4.1546384265997780e+00 1 1 0
1764 1 2.1944406628860653e+00 2.6003994782117807e+00 6.0424558339953660e-01 1 1 0
994 1 1.8995285573119087e+00 4.4660962802357602e+00 3.1451425040526559e+00 0 0 0
870 1 2.1903491144238783e+00 1.6694481888048320e+00 9.3793036194150703e-01 1 1 1
1029 1 2.6091201510318744e+00 9.6133765843904107e-01 3.7403736213984645e-01 0 0 0
3703 2 2.1399384411681148e+00 3.4117604689088084e+00 1.8802742166678459e+00 0 0 0
574 1 3.5002675897530855e-01 4.2351264494561818e+00 4.5373350146311839e+00 0 0 0
1357 1 2.5745267431243897e+00 8.7898251139299344e-01 1.5260051370077934e+00 1 1 1
1081 1 2.0636118957108480e+00 3.6164104028974222e+00 3.7596053872297022e+00 0 0 1
814 1 2.4718996124933512e+00 2.8263682106466868e+00 4.2705270624529934e+00 1 1 0
3533 2 2.4509799380560784e+00 2.4391937433391653e+00 2.7688987315490756e+00 1 1 0
722 1 2.5500732240863755e+00 1.8552981638209332e+00 1.9753799612229981e+00 1 1 0
1051 1 2.3732842014819564e+00 4.0838633565154492e+00 4.0007504891563428e-01 0 0 0
669 1 2.3017646959460825e+00 4.2907207804957554e+00 1.5016465042113003e+00 0 0 1
1147 1 2.8403656397364676e+00 7.7606248832627045e-01 2.5176558485451870e+00 0 0 1
1462 1 2.6691451896719234e+00 2.8677012309854395e+00 2.1267772449158935e+00 0 0 0
1818 1 1.8658756010980919e+00 8.1160846583713642e-02 2.8499707392063098e+00 1 1 1
3757 2 2.6807800566890156e+00 2.4719781675613048e+00 1.3086394397976744e+00 0 0 1
1194 1 2.3828251728002479e+00 1.5865221184283491e+00 3.0418313152796341e+00 1 1 0
580 1 3.1181262456800258e+00 1.0771907313808813e+00 3.6765614024574034e+00 0 0 0
1271 1 2.6558223995853587e+00 4.0541013711590832e+00 2.4836359647620121e+00 1 1 0
1615 1 3.2787854551930771e+00 1.7150131758277942e+00 1.0577788536839332e+00 0 0 1
567 1 2.7204665378265429e+00 3.3651355631605107e+00 1.1753089739114182e+00 0 0 0
1511 1 2.9012798401577027e+00 3.1273892896190270e+00 3.1258492236173563e+00 0 0 0
976 1 2.1444796181070709e+00 3.4998920664908623e-01 3.9300112600322672e+00 0 0 0
3756 2 3.2836112751419835e+00 8.4387430732324564e-01 9.1635484194597983e-01 0 0 1
30 1 2.6500404298498279e+00 4.3801319298534995e+00 3.9399248111855307e+00 0 0 0
1071 1 3.5478018059554604e+00 1.6754241855199608e+00 4.5579422623276793e+00 0 0 -1
2197 1 3.2892095005694686e+00 2.2264646930033876e+00 2.6623378558287110e+00 1 1 0
3865 2 3.0476976228975410e+00 4.4363600811163062e+00 9.3063430861335061e-01 0 0 0
1785 1 3.7722969735261827e+00 7.0151464418249543e-01 2.8903566598857751e+00 1 1 0
3775 2 3.3473548753339304e+00 1.3874998405101056e+00 2.9219304108432964e+00 1 1 0
860 1 3.2212755445335808e+00 3.4931668281688188e+00 4.0901067877604991e+00 1 1 1
1351 1 3.4907977424110803e+00 1.3104535055996100e+00 1.9788546312611985e+00 1 1 0
1561 1 3.5599837487726060e+00 3.3143552363330548e+00 2.3811077288370028e+00 0 0 0
878 1 3.8066296840390104e+00 6.1311684910371389e-01 4.6915844313891215e+00 1 1 0
1617 1 3.3998870827533301e+00 2.7102759850257674e+00 6.2919888191957574e-01 0 0 1
566 1 3.5602492120413798e+00 2.4703466823362081e+00 1.7046194430215977e+00 0 0 0
1428 1 3.4054372442515959e+00 4.2660362746617002e+00 1.7652496550388577e+00 0 0 0
534 1 3.4252784573337536e+00 4.1627728598514073e+00 3.2906478080059820e+00 0 0 0
1573 1 3.1266972230819112e+00 2.0666287392283902e+00 3.6877534376765446e+00 0 0 0
1855 1 4.1475617079513185e+00 9.8174503119679213e-01 1.0725836089956720e+00 1 1 1
1684 1 7.7449759365134154e+00 4.4211603132520887e+00 3.5216927080602636e+00 0 0 0
1721 1 3.9194006259356438e+00 2.8467068721858002e+00 3.2530748177491930e+00 1 1 0
3838 2 3.6498189192661292e+00 4.2524786839803994e+00 4.2646400880876243e+00 0 0 0
767 1 4.3562165814730713e+00 2.1304283940914108e+00 6.8977371295785728e-01 1 1 0
1506 1 3.9190308700176879e+00 3.4248214988523378e+00 1.3925923667511819e+00 0 0 0
1950 1 4.1445705972290945e+00 1.1385765667237722e+00 3.9190726375755953e+00 0 0 0
537 1 3.8122914976910858e+00 2.6478724274918255e+00 4.3449040612674095e+00 0 0 0
1897 1 4.5075904730750755e+00 8.9781267781206797e-01 2.1737593146082772e+00 1 1 1
991 1 4.1628622054245925e+00 1.6418681419424812e+00 3.0315981818273676e+00 0 0 0
3946 2 4.1054253476824529e+00 2.5823607838741305e+00 2.4851917879210883e+00 1 1 0
1455 1 4.8046388760453143e+00 5.8374322433919601e-01 3.2386827062452377e+00 0 0 0
3468 2 4.4133770691550804e+00 2.7124937012080728e+00 1.4145947913568657e+00 -1 0 1
4024 2 9.3377796765817802e+00 1.2936395386212074e+00 9.8567002508756651e-01 0 0 2
2661 1 8.9043662100266783e+00 3.4165886600831601e+00 3.7329483971789816e+00 0 0 0
1682 1 4.2714590375379045e+00 3.7151607581895769e+00 3.7859402202125736e+00 0 0 0
1535 1 4.3275568698661191e+00 3.9817652680307210e+00 2.7121589767026277e+00 0 0 0
3503 2 4.1793551182490658e+00 2.0895657968943220e+00 3.7537568039266271e+00 -1 0 2
2101 1 4.4744809248919548e+00 1.9297328302319547e+00 2.0146262675881950e+00 0 0 1
1437 1 4.7138593333248551e+00 3.1809127650229141e+00 2.1442228178345952e+00 0 0 0
1103 1 5.1734380884042537e+00 8.5531217500199286e-01 4.2458472334568231e+00 0 0 0
3764 2 4.8587942692148820e+00 1.5343982932778741e+00 1.3602708359022797e+00 1 1 -1
1858 1 5.0048524561790035e+00 1.6999351911104661e+00 3.6852818413193864e+00 1 1 0
889 1 4.5647593428410520e+00 1.9485905311419631e+00 4.5665670305582919e+00 1 1 0
1098 1 5.1810955346962109e+00 2.7555644018321637e+00 2.0674031637293749e-01 0 0 1
2076 1 4.8243893071193131e+00 2.4613782068649424e+00 2.9336643659685988e+00 0 0 1
1572 1 4.5227804043516304e+00 4.2303074665958409e+00 1.6502797998936549e+00 0 0 1
2946 1 5.1484024798980927e+00 7.0736138667527471e-01 1.4255457637527458e+00 0 0 0
3676 2 5.4206084000012584e+00 2.1953581919722120e+00 2.2599207391997909e+00 1 1 1
1870 1 5.2595642803302471e+00 1.5047495898162588e+00 5.5536834559244563e-01 1 1 1
1564 1 4.8537260691267123e+00 4.1415052774974219e+00 2.9829150041688202e-01 0 0 1
3097 1 5.4671995181865212e+00 4.4755055439338759e-01 2.3744902804268158e+00 0 0 1
1519 1 5.2681982689988605e+00 1.4896576609573784e+00 2.7521857681339958e+00 0 0 0
952 1 5.2285410728685147e+00 2.4453542232311096e+00 1.3123284306749774e+00 0 0 0
1538 1 6.1215864370022608e+00 1.5007076317594674e+00 3.5479584831912079e+00 0 0 0
503 1 4.9040393165064984e+00 3.3892700515273702e+00 1.0821395230537549e+00 0 0 0
2176 1 5.8141123535702945e+00 5.4779483481881874e-01 3.4236795800562447e+00 1 1 0
3964 2 5.1675909234105930e+00 4.3283415347525613e+00 3.1794319494847496e+00 1 1 0
2421 1 5.0737376917057198e+00 3.4695412852276966e+00 3.2278267856773772e+00 0 0 0
4281 2 7.7288102869328856e+00 2.2740755748079695e+00 2.9859365936847826e-01 1 1 0
1425 1 4.8235804934520967e+00 2.8016849282844460e+00 3.9830650056086010e+00 1 1 0
3635 2 6.0662789734213103e+00 8.2737555736012569e-01 4.1971235625859293e+00 0 0 1
1622 1 5.4057701283973127e+00 4.3343868196283566e+00 3.9763204775185579e+00 0 0 0
2330 1 5.5020620471204555e+00 4.6736570355893742e-01 4.6836700644754015e-01 1 1 1
1072 1 5.3068375962744661e+00 4.0682335736790236e+00 2.3802608190836900e+00 0 0 0
1160 1 5.7144628854170314e+00 1.5783543988872273e+00 1.7402401672277330e+00 0 0 0
4041 2 4.5025585189962545e+00 3.6352257974943780e-01 4.1991659782679980e+00 1 1 0
2201 1 5.4519219213962851e+00 4.4121427489871117e+00 1.0865838650522626e+00 1 1 0
906 1 5.7059427974567241e+00 2.9875368806449623e+00 2.5564363438878610e+00 1 1 0
2098 1 3.3662750191578654e+00 3.7854388118469111e+00 5.5342340753409525e-01 0 0 1
2250 1 5.7592978875751690e+00 2.6644776677820547e+00 3.4814310583365282e+00 1 1 0
4063 2 6.4235123776338723e+00 1.9679900863297492e-01 2.8768846690141929e+00 1 1 1
3121 1 6.0996520508443135e+00 3.6931785742340448e+00 4.6653394076031045e+00 0 0 0
1441 1 7.0746103756677101e+00 2.9576749170410475e+00 4.7610020780712636e-02 0 0 0
559 1 -5.0362399456967477e-01 4.7328734069596354e+00 4.1652804620813768e+00 0 0 0
1711 1 5.8699785678889356e+00 3.5625899453218195e+00 4.7510947614437787e-01 1 1 0
975 1 5.6903637709226791e+00 1.7668708785917637e+00 4.5538923088447705e+00 0 0 0
2515 1 8.9074166221085544e+00 3.0914382170175640e+00 8.9120957714613835e-01 0 0 0
2689 1 6.2031149154540666e+00 2.1173723739044439e+00 2.6979321888891787e+00 0 0 0
1470 1 5.8675192187016068e+00 3.4977021906576975e+00 1.5348082998400072e+00 0 0 0
2513 1 6.2779253548963299e+00 1.6481797627699661e+00 8.3530950926338432e-01 0 0 0
2568 1 6.2278440298527045e+00 7.6092642695817314e-01 1.2833309483512385e+00 0 0 0
1544 1 6.1477993776122482e+00 2.5673831716085638e+00 5.6031197773599373e-01 0 0 0
1678 1 6.1046023230213500e+00 3.8316156327062316e+00 3.3512948542088021e+00 0 0 1
1485 1 6.3346230946970739e+00 1.0348977741663274e+00 2.6074013837289032e+00 0 0 0
2047 1 9.0038358960286100e+00 2.6002892253463248e+00 3.0994264249217816e+00 0 0 0
3771 2 5.5276476037492062e+00 3.2889008332634231e+00 4.0825500463725639e+00 1 1 -1
1471 1 6.7499366365033335e+00 4.3218127299802223e-01 4.5694782882799165e+00 0 0 0
1689 1 6.2663617061262649e+00 2.6276943918471569e+00 4.4706430149804675e+00 0 0 0
1965 1 6.3425402167792733e+00 2.5165417653412758e+00 1.7057477511715671e+00 0 0 0
3460 2 6.5175758485454889e+00 3.0774841718853021e+00 3.1255809171533993e+00 -1 0 0
1489 1 6.7685892739342943e+00 2.3222776393945277e+00 3.5909035983060495e+00 0 0 0
2132 1 6.9105985164312802e+00 8.0239461074320584e-01 3.6123662576934703e+00 0 0 0
1667 1 6.7628370950593277e+00 1.5343671371248573e+00 1.8446665058432843e+00 0 0 1
1472 1 6.1493155233652503e+00 4.5908908234904455e+00 1.9470280889584379e+00 0 0 0
2257 1 9.2278611845399841e+00 2.1179488425697710e+00 1.1600365735999492e+00 1 1 0
1979 1 6.4734798699018290e+00 3.5296799279871180e+00 2.3753308337453887e+00 0 0 0
1671 1 6.4855795662462690e+00 4.2578238815520590e+00 9.8399108014067926e-01 0 0 1
1513 1 4.0077400472006959e+00 4.5458087578324378e+00 7.9268853553798435e-01 0 0 0
1065 1 -3.7632511331355539e-01 2.1087746796185107e+00 1.5944657661366564e+00 0 0 0
2145 1 6.7971093206350828e+00 3.3353727484403546e+00 3.9240851260232641e+00 0 0 0
1991 1 7.3042282477713005e+00 7.1945324433317159e-01 2.5247636264069424e+00 0 0 0
2854 1 6.7012400849362539e+00 1.6162933382455962e+00 4.3975682421579787e+00 1 1 0
2646 1 7.2178255225690249e+00 1.6859984636204208e+00 2.8175390441552652e+00 0 0 1
2468 1 6.9030143940725033e+00 3.2928793473406017e+00 1.0176841348137080e+00 0 0 0
2737 1 7.9110394575260585e+00 7.1598044950308859e-01 3.4718565360042359e+00 1 1 0
2538 1 7.2207919804974363e+00 2.2370011386628694e+00 9.5117769261637464e-01 0 0 0
962 1 -7.1736160888310674e-01 4.6136811024688162e+00 2.2883813237925668e+00 0 0 0
2850 1 7.0688508846865616e+00 2.7003914453289788e+00 2.6229865632761875e+00 1 1 0
1168 1 7.8650472563971103e+00 4.2989294912194848e-01 1.5396890154027791e+00 0 0 1
2063 1 6.8051147212446423e+00 4.5645522386897577e+00 2.8609951854698612e+00 0 0 0
4242 2 7.3572844731291545e+00 2.3153573390106681e+00 1.8256186344261507e+00 0 0 1
2159 1 6.8071003316388889e+00 4.3871386008310536e+00 4.0853276165701571e+00 0 0 0
2056 1 7.3165201293279170e+00 1.1460191253123533e+00 9.9132762268842467e-01 0 0 1
4056 2 8.1226174679323329e+00 3.6177376798482763e+00 3.3182477450648071e+00 0 0 0
1117 1 1.1799671678476242e+00 4.0897087631182822e+00 1.7157018849732669e-01 0 0 1
2386 1 7.8236991658095665e+00 1.4743068675360853e+00 1.8892985612756867e+00 1 1 1
964 1 7.0199027209181786e+00 4.1212167353810951e+00 1.7643495880265603e+00 0 0 0
1493 1 7.5910806905068320e+00 1.6331327695664581e+00 3.7635366664877510e+00 0 0 0
1988 1 7.5766582702314800e+00 3.1314655045528661e+00 1.8221310894915728e+00 0 0 0
4177 2 1.0657530847663657e+00 1.7761520131905879e+00 4.6594257850826502e+00 1 1 0
1073 1 2.9005809070919395e+00 7.4592346032448562e-02 3.2747351111155516e+00 0 0 0
2631 1 7.3655594418239376e+00 3.5802154025503068e+00 2.9413475675666860e+00 0 0 0
1001 1 4.2601419194402164e+00 3.3203016269601755e+00 2.8838258001661071e-01 0 0 0
2278 1 7.3769857288855780e+00 4.2407352439035823e-01 2.6583296552302299e-01 1 1 1
4182 2 7.3267522911934515e+00 2.8257032774541294e-02 3.2836831385147160e+00 1 1 1
1076 1 7.9065044960543327e+00 3.2050967249104723e+00 6.5589412060489272e-01 0 0 0
1090 1 1.4526000667336827e+00 9.5635436509793870e-01 4.3739957933128055e+00 0 0 0
2081 1 7.8730928939406741e+00 3.3942011421164211e+00 4.1276488481023632e+00 0 0 0
2120 1 7.3542573352236227e+00 2.5310612460887514e+00 4.3979136433045323e+00 0 0 0
3602 2 3.1206701301560806e+00 2.7989892168329328e-01 4.2347100652844727e+00 0 0 0
2555 1 8.6320693422317838e+00 4.3421382335547154e+00 4.0689115927171322e+00 0 0 0
1066 1 7.5104703882068966e+00 4.3405467059354921e+00 7.2281401868373785e-01 0 0 0
2642 1 8.1078032641005287e+00 2.3908617735495992e+00 2.3641690465842502e+00 0 0 0
1500 1 8.3417413719342743e+00 1.6360309224228518e+00 3.0594194538139363e+00 0 0 0
1975 1 8.4275111419742093e+00 1.3664575655929176e+00 1.0709995720608403e+00 0 0 0
1983 1 7.7828810970654496e+00 2.6429963857475030e+00 3.3294328441466727e+00 0 0 0
1174 1 8.5609014918797541e+00 3.7761512160077698e-01 7.0470124454129779e-01 0 0 1
4240 2 -6.3318608050090197e-01 4.5292615188115759e+00 4.5626142471548781e-01 1 0 0
4124 2 7.0765175007643997e+00 6.3676219748211116e-01 1.6752525022800067e+00 0 0 1
2500 1 8.3586013840606732e+00 2.3744336136246584e+00 4.2868751691184661e+00 0 0 0
2055 1 8.1812341177225285e+00 2.3582295403237055e+00 1.3355437259230349e+00 0 0 1
56 1 6.1036216222313244e-01 1.8994937066708502e+00 1.0289404110069167e-01 0 0 0
2208 1 8.4610285008921196e+00 6.9618147584651358e-01 2.5582196714629757e+00 1 1 0
4133 2 6.1409309844335347e+00 4.6358550396834568e+00 4.6250943465774013e+00 0 0 0
1621 1 4.4695693305764346e+00 4.7442035326366323e+00 3.3974247457693849e+00 0 0 0
1439 1 7.8611378102326563e+00 4.4017467357613640e+00 2.4094462725862602e+00 0 0 0
2084 1 5.9040316332858147e+00 4.5544022406618119e+00 2.5388832456263114e-02 0 0 1
3040 1 1.2414983193308871e-01 4.6241054350795734e+00 4.2183555604177018e-02 1 0 0
3730 2 8.4771817337583695e+00 3.0841170632094941e+00 1.7021537185835962e+00 0 0 -1
1594 1 8.3361713208222490e+00 1.1875738428834359e+00 4.3708923730139890e+00 0 0 0
2530 1 9.0082925928190765e+00 8.6131001504104199e-01 3.4429253507410169e+00 0 0 0
1359 1 3.7578690394339738e+00 1.3677125165463633e+00 2.0463634416173743e-01 1 1 1
1212 1 6.2980697157351386e+00 1.0172871267304573e+00 5.8408758889442337e-02 1 1 0
4147 2 8.6882290414224386e+00 4.3652473964271579e+00 1.9417551443147736e+00 0 0 0
1242 1 1.6988290907836643e+00 1.6304395701611225e+00 6.6703234003606796e-02 1 1 0
2282 1 9.0054752322353497e+00 7.0927272329485835e-01 1.6623848047971301e+00 1 1 0
2275 1 8.2334438516202955e+00 3.9629668463423044e+00 1.4073564743078626e+00 1 1 0
2174 1 8.7793110586704737e-01 2.5516768846579002e-01 5.2048791919943341e-02 1 1 0
4116 2 3.7412955398267556e-01 5.4809755722494835e-01 1.0089463351380670e+00 1 0 -1
2358 1 8.6308234314444459e+00 2.2227370221757661e+00 3.3336360551402050e-01 1 1 0
1458 1 3.7035879135390370e+00 5.8725334506748321e-02 6.4393732808710735e-01 0 0 0
1906 1 2.7185455817768558e+00 9.8414195222655332e-01 4.6333284987811840e+00 1 1 0
3407 1 9.5905475725176093e+00 2.0328995193651889e-01 4.2285997333724801e+00 1 1 0
550 1 9.9579600246170474e-01 4.6091605676364340e+00 2.5548146781232051e+00 0 0 0
1696 1 4.4270097440421594e+00 4.6262044664959401e+00 4.4696153612563956e+00 0 0 0
3979 2 8.8476607336781505e+00 1.6610639270259493e+00 3.8484155739473920e+00 0 0 0
2949 1 8.9042566722951566e+00 1.6625320593980504e+00 2.0627897435032367e+00 0 0 0
548 1 2.4997782929240717e+00 3.8101634432824376e+00 4.7460827540069568e+00 0 0 0
3063 1 8.3413840366521477e+00 3.5158341311184405e+00 2.4916924798734419e+00 0 0 0
2428 1 8.4573685120500102e+00 4.0348150148568411e+00 4.3275890487485313e-01 1 1 1
3331 1 8.9814643453960485e+00 1.1782002950276889e+00 1.5537275679218263e-01 1 1 1
3587 2 4.6866887840793394e+00 4.7927045405318500e+00 2.4008881816736980e+00 0 0 0
3725 2 9.0437667883733344e+00 8.8022951538274705e-02 2.3233573042313296e+00 0 0 1
4042 2 -2.0800968424489014e-01 1.1748034788210318e+00 4.1759688072459102e+00 1 1 0
1508 1 8.5039954694410245e+00 1.2972181569851246e-01 4.0847855840573324e+00 0 0 0
1132 1 6.1616536397363275e-01 1.4251328677228101e-01 4.5013625524920222e+00 0 0 0
1201 1 6.3913021792484841e+00 6.7697904320368735e-02 2.0198856654072670e+00 1 1 0
2444 1 7.8819656262428692e+00 1.3867165128860439e+00 1.3925724579451373e-01 0 0 0
2823 1 8.8042653863733431e+00 4.2390118467780207e+00 2.9718896008514446e+00 1 1 0
3631 2 8.4437183236139213e-01 4.8233777581399684e+00 4.8596678162486662e-01 0 0 1
1190 1 -2.9347333021127292e-01 1.6289850095392688e+00 6.5434575549914220e-01 0 0 1
599 1 -7.2187042715938329e-02 8.0849491104397930e-01 2.5722705747239285e+00 0 0 0
159 1 5.1141740140180442e-02 3.6353406136475017e-02 1.7790669560724945e+00 0 0 0
2677 1 6.9073214991410126e+00 1.8305347019758433e-03 1.0831649772564291e+00 0 0 1
4029 2 4.4922486037893758e+00 2.9482977486619317e+00 4.7967285229229297e+00 1 1 0
95 1 1.8820185606576951e+00 4.1448354725618565e-02 1.7155769440841808e+00 0 0 0
2082 1 9.2464766522751347e+00 2.5776060029262512e-02 1.6383047198961908e-03 0 0 1
70 1 6.3154084571005953e-01 2.9045519479459379e+00 9.5580435284572154e+00 0 0 -1
216 1 -4.6377124357040950e-01 3.6988902871370635e+00 7.9455329770098979e+00 0 0 0
2128 1 7.1330967125752505e+00 3.4853872451007080e+00 5.0072563947070963e+00 0 0 0
2604 1 9.2491159797879146e+00 1.6190770880469822e+00 8.0779704581716221e+00 0 0 0
4219 2 3.4266049711055324e-01 1.4150780736225435e+00 6.6623594245979012e+00 1 0 -1
1590 1 2.1981993023643667e+00 1.4545785849668799e-01 8.1239726711705558e+00 0 0 0
3752 2 1.3724347011305837e-01 1.7256442970524668e+00 5.4434346791359278e+00 0 0 0
626 1 1.8285892372102552e-01 2.7315058581595855e+00 7.1563891707343634e+00 0 0 0
698 1 7.6706960546630787e-02 2.1531554185166963e+00 6.1950638899572690e+00 0 0 0
4289 2 5.2440467850453421e-02 2.6704421358705037e+00 8.1282824466021459e+00 2 1 0
675 1 -4.3969640937090532e-01 3.7183467373189187e+00 6.1297239174036653e+00 0 0 0
109 1 -2.3326452584380752e-01 1.3387066530670482e+00 9.1117078828092826e+00 0 0 -1
1498 1 4.4653234067474290e-01 5.2213282150920515e-01 6.5296699418071578e+00 0 0 0
978 1 2.3607077289824610e-01 9.0416670162781554e-01 8.1888128306754169e+00 0 0 -1
1067 1 4.0574401680013583e-01 2.0673742931826924e+00 8.6711089009263915e+00 0 0 -1
1186 1 1.5466571657493572e-01 1.8734647262891118e+00 7.7087583722542750e+00 0 0 0
601 1 -3.7896344791746495e-01 4.3509123712516784e+00 5.3297801905475044e+00 0 0 0
3115 1 -4.6665338005573154e-02 3.1808090223544943e+00 8.8721931385583446e+00 1 0 0
3124 1 9.2124406895207489e+00 5.4226438140651055e-02 8.1676630185647934e+00 0 0 0
1080 1 7.4435607840249041e-01 1.3544400536629930e+00 5.9245761283084368e+00 0 0 0
621 1 1.3625530177624998e+00 4.8196998851359746e-01 6.1506424695210482e+00 0 0 0
3512 2 2.5821431176842735e-01 4.2808208588863996e+00 6.2930141433407831e+00 0 0 1
1107 1 8.0485541350840228e-01 1.0749996841631990e+00 9.0757762854039470e+00 0 0 0
1213 1 1.0090485936386442e+00 2.0769780154294399e+00 6.7990496173794588e+00 1 1 -1
569 1 4.9874908372309912e-01 3.3559251876171117e+00 8.0028828738854347e+00 0 0 0
1050 1 2.7464735796991278e+00 3.2032202877941827e+00 9.6313565349185364e+00 0 0 -1
583 1 2.1316362501815367e-01 3.8686368910755782e+00 7.0437478635810935e+00 0 0 0
1114 1 6.5412265440935702e-01 2.3113224138860273e+00 5.2254118344434239e+00 0 0 0
659 1 4.4735821533611753e-01 3.1535877609185787e+00 5.9877102642993885e+00 0 0 0
3658 2 8.5605937071802929e-01 1.5322841347083642e+00 8.1240793802851403e+00 1 1 -1
948 1 1.0612700710627490e+00 2.3710961367540961e+00 7.7907337048283249e+00 1 1 0
3461 2 2.8212986171493881e-01 3.7833611144192361e+00 9.3587617662618197e+00 0 0 -1
1318 1 1.5151472974613189e+00 1.7275407680576247e+00 8.6638007926806182e+00 1 1 0
1015 1 9.4436548866872805e-02 4.2847323504224111e+00 8.6414358985518582e+00 0 0 -1
2072 1 7.9024697875623018e-01 1.1575111161919009e+00 7.3609269141043807e+00 0 0 0
1591 1 1.0896449492507960e+00 3.0520028528321341e+00 6.8635812493183961e+00 0 0 0
1614 1 1.3457421312582969e+00 7.5647762301843180e-01 8.1305634012650394e+00 0 0 0
108 1 8.0545834622177259e-01 4.4628577690100162e+00 7.9544941199484187e+00 0 0 -1
409 1 2.1552211810138638e-01 3.2302602763718857e-01 5.4611215533385691e+00 1 1 0
1683 1 1.5853467611385819e+00 1.7234709699109250e+00 5.3505871667132006e+00 0 0 0
1187 1 1.3615804061047936e+00 2.5463215888539361e+00 5.9716958542966889e+00 0 0 0
227 1 9.4827607652903645e-01 3.8027573122723033e+00 8.8163626593605340e+00 0 0 0
1093 1 7.3108759873158935e-01 4.1084373918077786e+00 5.6103364604323991e+00 0 0 0
973 1 1.2210288778753768e+00 2.7302634181184318e+00 8.7146078487233964e+00 0 0 -1
3755 2 1.0686031695183416e+00 3.8643156336566298e+00 7.3767197015404280e+00 0 0 0
3761 2 3.4554684943967944e+00 4.7878971385248237e+00 7.9741537964593068e+00 0 0 0
3713 2 1.2833899030029547e+00 3.4334783035754999e+00 5.9102632504798240e+00 0 0 0
704 1 1.8676819286432593e+00 1.5592656847572415e+00 7.4124369031605690e+00 0 0 0
1606 1 1.7592992551788338e+00 1.4918435084094224e+00 6.4102172940294206e+00 0 0 0
1146 1 1.5443548893910493e+00 3.3540879815934428e+00 7.9089805885878555e+00 0 0 0
1128 1 2.0478018749481381e+00 7.1258618541059437e-01 5.3790234819166640e+00 0 0 1
1083 1 2.6115240007954177e+00 1.4205532346940291e+00 8.9463595539987644e+00 0 0 0
127 1 1.3204436907542778e+00 4.0348395983831091e+00 6.5056958155220510e+00 0 0 0
1569 1 1.6459420551643640e+00 5.6279658601518967e-01 7.1377914702400096e+00 0 0 0
1177 1 2.0700218245559951e+00 2.8815577105341657e+00 5.2744456359724259e+00 0 0 0
1453 1 2.2285940373612450e+00 2.4156835003102519e+00 9.1540471213798309e+00 0 0 -1
1865 1 3.0802607982610519e+00 7.0800952079366186e-01 8.3374952098482016e+00 1 1 0
3868 2 2.2331208342672055e+00 1.0519439971012108e+00 8.1419589337269738e+00 0 0 -1
538 1 3.1160222353416938e+00 7.0849313715450224e-01 5.6031811117102910e+00 0 0 -1
2088 1 1.7922648012910005e+00 3.9661024345822642e+00 5.4872579796302503e+00 0 0 0
547 1 1.9597646966257831e+00 2.5484854060349225e+00 7.0684998027137862e+00 0 0 0
186 1 1.7009774346861843e+00 4.4824882813806974e+00 8.4848062929935164e+00 0 0 0
4081 2 1.8285616121773363e+00 3.9989854983688686e+00 9.1854328224641293e+00 0 0 -1
1183 1 2.2684223521569162e+00 3.4663962125504781e+00 8.7355010673728319e+00 0 0 0
899 1 2.0784888027618305e+00 2.3842838588295932e+00 8.0698746094150184e+00 1 1 0
4241 2 2.3483986761245608e+00 1.4788437516875412e+00 5.7343377968829099e+00 1 0 -1
2135 1 1.8951534870824180e+00 4.2684046453895359e+00 7.4677268690034051e+00 0 0 0
1853 1 2.4575640265796235e+00 2.3040391728551564e+00 6.0716608448156748e+00 1 1 1
1630 1 2.8253201375086325e+00 1.6765162424211593e+00 7.8990399020366100e+00 0 0 0
3123 1 2.1188682734572795e+00 3.2815932953043969e+00 6.2599824609828918e+00 1 0 0
3849 2 3.0454115497287808e+00 3.9989999913643453e+00 9.4867800647462417e+00 0 0 0
1175 1 2.6952002616151347e+00 7.2374890058506713e-01 7.3702977660964377e+00 0 0 0
3737 2 1.8734487492027867e+00 3.4514569826272479e+00 7.0430488083600542e+00 0 0 0
4101 2 2.3867578758694687e+00 4.0588369360862853e+00 8.1037693913043345e+00 0 0 -1
954 1 2.5346408999766425e+00 3.3533761902952790e+00 7.6472904685995182e+00 0 0 -1
1349 1 4.1315359567267054e+00 4.9934897722027083e-01 5.7658330612799586e+00 1 1 0
3016 1 2.3811014016540062e+00 4.2550865501496116e+00 6.5612874852866527e+00 1 0 0
2057 1 3.6184856317145138e+00 8.5687132709569069e-01 6.6372002048147625e+00 0 0 0
1188 1 5.0608078524016769e+00 4.6446292991022009e+00 8.9782493092311384e+00 0 0 0
1016 1 2.5289600531894152e+00 4.6553016940435592e+00 9.0585462530433833e+00 0 0 -1
1836 1 3.7207257598598673e+00 1.3260768391069713e+00 7.5149915398688583e+00 1 1 0
1665 1 3.0222720912169274e+00 2.5154588592924272e+00 7.2795308299814581e+00 0 0 0
1626 1 4.1460900433048717e+00 6.6176045788403648e-01 8.8157079989689802e+00 0 0 0
1647 1 3.2839204567646041e+00 1.7116547752715359e+00 5.7675223912682334e+00 0 0 0
1078 1 3.5648596296459276e+00 3.3134265542075543e+00 7.8388469730258947e+00 0 0 0
1301 1 2.7544860627563446e+00 1.5572864081595479e+00 6.7626932108609044e+00 1 1 -1
3577 2 2.8716764204933565e+00 3.0687185609243799e+00 5.9356602043983155e+00 0 0 -1
3978 2 3.6076032852102813e+00 2.1449591866170352e+00 7.9672469506203853e+00 1 1 0
1514 1 3.5762954688719555e+00 3.4022892928360804e+00 9.0433283868516412e+00 0 0 -1
1549 1 6.9174243560658528e+00 1.2013701866578164e+00 5.2935612202530082e+00 0 0 0
1085 1 2.8941161162350619e+00 3.9466401047728743e+00 5.7172026140729031e+00 0 0 0
624 1 2.9877455170810165e+00 2.7085594161676392e+00 8.4034006134401764e+00 0 0 0