LAMMPS data file via write_data, version 12 Dec 2018, timestep = 465960

4320 atoms
2 atom types

0.0000000000000000e+00 1.9309999999999999e+01 xlo xhi
0.0000000000000000e+00 1.9309999999999999e+01 ylo yhi
0.0000000000000000e+00 9.6549999999999994e+00 zlo zhi
-5.6771400000000050e+00 0.0000000000000000e+00 0.0000000000000000e+00 xy xz yz

Masses

1 1
2 1

Atoms # atomic

818 1 1.7870072548686572e-01 5.3049073238845046e-01 2.2812242359986068e-01 1 1 0
4042 2 2.6862327029526861e-01 1.4408546133354354e+00 4.2320209807371123e+00 1 1 0
717 1 -5.9398598775276634e-01 3.7863918451720595e+00 6.9728376965708250e-01 0 0 1
586 1 -2.6021407651707384e-01 3.7118504777440933e+00 2.3767559320835150e+00 0 0 0
1165 1 -1.1045715724772637e-01 2.0185154660634197e+00 3.6867300467546218e+00 0 0 0
159 1 8.7440239709102463e-01 2.4843729652307217e-01 2.0136528743426445e+00 0 0 0
1065 1 1.5896452406769224e-01 2.1546739240125219e+00 1.6300915745225126e+00 0 0 0
555 1 6.9909008547121498e-01 1.2181632760971526e+00 1.4843014302687756e+00 0 0 0
599 1 2.6366123719677592e-01 1.1190603579613689e+00 2.4899526447340956e+00 0 0 0
1190 1 1.7594860237702947e-01 1.4955766248368845e+00 5.9142542887632932e-01 0 0 1
4238 2 -5.1878416140050410e-01 4.0756095503402010e+00 1.5634107342478776e+00 1 0 0
3588 2 -3.3477994801621302e-01 3.8060394131167783e+00 3.2788984905635465e+00 0 0 0
529 1 -6.6237400732918550e-01 4.5133613120086427e+00 3.0995104035935350e+00 0 0 0
622 1 -6.0393480251022225e-01 2.7540397231778733e+00 7.6873012130390694e-01 0 0 1
1018 1 -7.6675343488013636e-01 4.7527189160703935e+00 1.1657034220052298e+00 0 0 0
232 1 -7.4767532590054597e-01 3.7160910150361470e+00 4.0327915307548219e+00 0 0 0
1376 1 -2.3996494875034002e-01 2.0021777912026355e+00 2.6178692334954121e+00 1 1 0
802 1 -2.7611514206106202e-01 2.8174723141287852e+00 4.4605413081473095e+00 1 1 0
3128 1 -2.9481111700456286e-01 2.9444759249986472e+00 3.0949413040516069e+00 1 0 0
3606 2 -4.6130584099805511e-01 2.8401740727258877e+00 2.2413215892865397e+00 0 0 0
3688 2 -1.9111182932739501e-02 3.7647054314365898e+00 4.4737164087702386e+00 1 1 0
1054 1 7.5929032707419020e-01 7.0187119518127605e-01 3.8796178711260825e+00 0 0 0
668 1 3.1998729055887742e-02 3.3256722905258638e+00 1.4498297763479668e+00 0 0 0
34 1 3.4939036817347680e-01 2.5227929527167130e+00 6.3383831286947412e-01 0 0 0
1134 1 1.1683041239733867e+00 2.1851648539111901e+00 1.7235165608611851e+00 0 0 1
3608 2 5.8267326025505095e-01 1.9358114035555058e+00 2.4691693288145067e+00 0 0 0
1167 1 6.1821283174234354e-01 2.2149698921250636e+00 4.2990502469086422e+00 0 0 0
481 1 7.7647052831101737e-01 1.6342683667809195e+00 3.2918788112313182e+00 0 0 0
3127 1 3.3192687116947583e-01 3.5404021933776519e+00 3.7668097156210876e+00 1 0 0
559 1 -2.7881538898469005e-02 4.5526947448944837e+00 4.0632192250234374e+00 0 0 0
1042 1 -1.0428798286353351e+00 4.7050810652354009e+00 1.3679186137738805e-01 0 0 0
3708 2 9.2487657075476637e-01 1.8860201375994976e+00 9.0923284231752877e-01 0 0 0
2941 1 4.4266793698493812e-01 2.8537418739345504e+00 2.2962392938398768e+00 1 0 0
1554 1 1.1102162961849575e+00 1.0379401517609328e+00 4.8731413148868202e-01 0 0 1
572 1 6.6665427245836717e-01 2.6798510045984520e+00 3.3514589099863961e+00 0 0 0
751 1 1.6644039211586361e+00 6.5907574570545968e-01 3.0927367260871135e+00 1 1 0
3619 2 4.7688864801787911e-01 3.5578700009521929e+00 2.8658874657241991e+00 0 0 1
656 1 4.3971514053742844e-01 3.5473750076554258e+00 4.9682478760186338e-01 0 0 1
2996 1 2.0201867888038838e-01 4.3625341787079730e+00 1.1258494156835173e+00 1 0 0
1022 1 3.4954450264757853e-01 4.4360134972227474e+00 3.0547985256703001e+00 0 0 -1
4250 2 -9.0551529989429125e-01 4.5478335136757764e+00 3.9502723218136659e+00 1 0 1
1040 1 1.8166300445784371e+00 1.6174970660541628e+00 1.1463312290437586e+00 0 0 0
631 1 1.3098565317647091e+00 1.2945846978004827e+00 2.3315696617420558e+00 0 0 0
1039 1 6.9265963956608867e-01 3.8993923240862887e+00 1.9923213534688078e+00 0 0 0
4264 2 1.6614104885614864e+00 1.5997219871835424e+00 3.0334983125060631e+00 1 0 1
1166 1 1.0632008248192037e+00 3.1614083084806968e+00 1.3435102787219773e+00 0 0 1
1358 1 1.5961648544292966e+00 6.1656938964607488e-01 1.3781564583804586e+00 1 1 1
4119 2 1.3659873671701057e+00 2.2022798715838139e+00 3.6905606000532520e+00 0 0 0
3719 2 8.2012594326302113e-01 3.0673983842602346e+00 4.3396347423132688e+00 0 0 -1
574 1 9.0689323594285387e-01 4.0680888362847849e+00 4.4993346576717164e+00 0 0 0
652 1 -2.1808457933303221e-01 9.9530758686248200e-01 3.5504819986100755e+00 0 0 0
3040 1 7.4034289827761945e-01 4.5719192940767943e+00 1.4453393733106715e-01 1 0 0
663 1 1.3194930498556106e+00 2.3395347471411152e+00 2.7370995046788105e+00 0 0 0
235 1 1.8020835230263510e+00 1.4702836179394441e+00 3.8814359208019971e+00 0 0 0
1913 1 1.0899777312871934e+00 1.3071755092554664e+00 4.6510854621708884e+00 1 1 0
1286 1 5.3070325264293627e-01 2.5331902213909907e-01 3.0019689126399025e+00 1 1 0
636 1 -1.1385710063595447e+00 4.2426240333980774e+00 2.1188334512958784e+00 0 0 1
968 1 1.4900984771771748e+00 2.5581193207437081e+00 5.7732240207695917e-01 0 0 1
3768 2 1.2812054505757455e+00 3.4017430669969997e+00 4.2257592890020118e-01 1 1 0
1198 1 1.2210397459016522e+00 4.0811992716783934e+00 9.5583917205739954e-01 1 1 0
386 1 1.9513508290582349e+00 4.8189166690980245e-01 4.0403966536776732e+00 1 1 0
1505 1 1.3118890588395637e+00 4.1221711693649787e+00 3.5736613084010451e+00 0 0 0
1007 1 1.7735115440332798e+00 2.2708273663039118e+00 4.4315672280050995e+00 0 0 0
3686 2 1.3667560038792363e+00 2.8846829852833173e+00 2.1192490633376964e+00 1 1 0
1440 1 1.3195513083689758e+00 3.4305111292197852e+00 2.7582340760008903e+00 0 0 0
962 1 -1.6441175248765694e-01 4.7795452942030741e+00 2.1234302362876556e+00 0 0 0
1073 1 3.5306540146580412e+00 9.3048930762614168e-02 3.5873692593906150e+00 0 0 0
2164 1 1.4968091169021416e+00 3.0831549262513165e+00 3.7867061725100570e+00 0 0 1
550 1 1.3018942596384857e+00 4.5994327235001355e+00 2.4329004976264548e+00 0 0 0
1818 1 2.6480122356768376e+00 8.0452825936594141e-02 2.8377702849868083e+00 1 1 1
95 1 2.5915425783140105e+00 1.0109480323835020e-01 1.3269870911163231e+00 0 0 0
1242 1 2.0214484635437238e+00 1.7131007364238513e+00 1.4998144301942692e-01 1 1 0
2174 1 1.9426753537000929e+00 1.7143995108900967e-01 5.2266971232214587e-01 1 1 0
1783 1 2.4174132973998206e+00 9.6043505220305136e-01 1.9713811601838258e+00 1 1 0
505 1 2.0329040660974478e+00 2.6690734709299422e+00 1.4655613344140730e+00 0 0 0
568 1 2.1351238250141980e+00 1.9441072814469638e+00 2.2391827420147945e+00 0 0 0
575 1 2.4806187609421340e+00 1.3290349810859521e+00 3.0926722458199807e+00 0 0 0
1127 1 9.6040229663387700e-01 1.3517792537684002e-02 8.5659771891746384e-01 0 0 1
4240 2 -1.6975407080212301e-01 4.7691863653977009e+00 3.0978226718511931e-01 1 0 0
1798 1 2.6023466011557708e+00 9.5323565733021121e-01 4.9743696268877885e-01 1 1 0
1062 1 2.1737608339471146e+00 2.4190731811711124e+00 3.3394608713860796e+00 0 0 0
664 1 1.8239858763486481e+00 3.8456524241497543e+00 1.8134005203015440e+00 0 0 0
1117 1 1.6409508028772155e+00 4.1056796726994929e+00 3.5484218127866299e-02 0 0 1
3856 2 2.6442519780607023e+00 5.7728416664545457e-01 3.5308343420983932e+00 0 0 0
987 1 3.0458570600639310e+00 1.8150095147501359e+00 4.3236756168119971e-02 0 0 0
3750 2 -5.2039553479437239e-01 1.8308826242658776e+00 9.4930804911423372e-01 0 0 1
253 1 -2.7447667687516192e-02 3.5109352348136547e-01 1.3436369957130430e+00 1 1 0
1051 1 2.6807681034033481e+00 4.0201839698016109e+00 2.3757828827594873e-01 0 0 0
1132 1 1.1057664675147731e+00 1.2254051309200245e-01 4.7327338314036353e+00 0 0 0
976 1 2.9728859274075177e+00 4.0045845641756389e-01 4.4820141043282549e+00 0 0 0
870 1 2.7963915380042890e+00 1.9054318555879663e+00 1.2349426380566666e+00 1 1 1
1357 1 3.4356431833131018e+00 5.6801092092023053e-01 1.7872484866583431e+00 1 1 1
1764 1 2.5569657078199977e+00 2.5635418586605985e+00 5.1005715471243174e-01 1 1 0
1029 1 3.4473602397866410e+00 4.1685719985864678e-01 7.0259039453474248e-01 0 0 0
1081 1 2.6476826739814752e+00 3.5241318427408026e+00 3.5887517978092811e+00 0 0 1
124 1 2.0013013515631908e+00 3.9861588473555272e+00 4.3461352117440271e+00 0 0 0
1019 1 2.1208631773892512e+00 3.5212604037414135e+00 8.7804161439005668e-01 0 0 0
3627 2 2.0011928237518610e+00 4.3810423456174474e+00 8.2461334834750855e-01 0 0 1
814 1 2.8096720670003998e+00 2.5119011173701931e+00 4.1406067727346523e+00 1 1 0
3884 2 2.1905318673566652e+00 3.0926230541023707e+00 4.2917391043621835e+00 0 0 1
3878 2 2.9280237162987564e+00 1.0182251895415071e+00 1.2620081961206278e+00 0 0 1
722 1 3.1837117989257182e+00 1.6731295750145481e+00 2.2404473963318203e+00 1 1 0
1147 1 3.4595716135608736e+00 8.1801918963055920e-01 2.8261891295385571e+00 0 0 1
1446 1 2.2468963237424262e+00 2.9861465309500708e+00 2.4802377990804514e+00 0 0 0
3703 2 2.4867611857142831e+00 3.4062817344334837e+00 1.6811512605196244e+00 0 0 0
3533 2 2.8040389373022823e+00 2.3708910309426208e+00 2.6945702807509315e+00 1 1 0
1462 1 3.0191695746305220e+00 2.6914009423837921e+00 1.8697663546038281e+00 0 0 0
994 1 2.1095495928869328e+00 4.1370750968477186e+00 2.9088627112137475e+00 0 0 0
2360 1 2.9118511381970955e+00 1.3545875283459936e+00 3.9921604028010758e+00 1 1 0
1526 1 1.5129777540309299e+00 3.2262595509319039e+00 4.7966704934899749e+00 0 0 0
615 1 -9.4682330640624202e-01 3.2207442157422723e+00 1.6533794200315486e+00 0 0 1
21 1 -5.8074254835032801e-01 2.0320991299988953e+00 7.3211174567468423e-02 0 0 0
610 1 -2.7847049329874440e-01 1.7320687964725596e+00 4.8221322671466886e+00 0 0 0
526 1 1.0908616487083878e-01 1.2455357327637346e+00 5.6944503225789722e+00 0 0 -1
4295 2 8.5806002146292082e-02 7.8801114507629322e-01 8.1399676534433745e+00 2 1 0
933 1 -6.7492602679493485e-01 3.6072930329876614e+00 8.6470180254168501e+00 1 1 0
1180 1 -4.7527847894217712e-02 2.5224709471022102e+00 5.5273179748170147e+00 0 0 0
545 1 4.1728474653578956e-01 9.3567944491827570e-01 7.3773944835781613e+00 0 0 -1
1533 1 -3.8889635817315638e-02 1.6622284747850966e+00 8.0584485176853509e+00 0 0 -1
109 1 2.0525608825576513e-01 1.4407001074920265e+00 9.1001043591728408e+00 0 0 -1
216 1 -1.6441957368017923e-01 3.4724842768778350e+00 7.7226005401952573e+00 0 0 0
341 1 -1.0967191837078265e+00 4.1394064016144636e+00 7.8070774351876899e+00 1 1 -1
69 1 -1.1890526818292724e+00 4.4778939020723705e+00 8.7866596140594506e+00 0 0 -1
3586 2 -4.1061685282915816e-01 2.9468147379880820e+00 6.4024735578918834e+00 0 0 -1
676 1 -6.3295028878516113e-01 3.3842498289926199e+00 5.1896916078077382e+00 0 0 0
1565 1 -4.7956761997798503e-01 2.4508303641370612e+00 7.4548867430974646e+00 0 0 0
914 1 2.4497384903246117e-01 3.5992351097784803e-01 8.8690953562195620e+00 1 1 0
1620 1 -3.1945761805573691e-01 2.6269120472479166e+00 8.4855582601127750e+00 0 0 0
1101 1 -5.3656555402119821e-01 4.0481497283137600e+00 6.8860306991838707e+00 0 0 0
160 1 -6.2690313505062278e-01 4.4898975519627422e+00 5.9952164652492810e+00 0 0 0
230 1 -3.0558659515231390e-01 2.1136850543672567e+00 6.4777046719851761e+00 0 0 0
4219 2 3.3425703509296090e-01 1.5339531331722580e+00 6.5059849399817846e+00 1 0 -1
3729 2 -1.6720614733464312e-01 4.3124476564161069e+00 8.4868637333667518e+00 0 0 0
3752 2 5.0300844956522706e-01 1.8126294007984369e+00 5.1496996288428223e+00 0 0 0
626 1 2.6597324206498063e-01 2.9080822006259988e+00 6.9190657154118025e+00 0 0 0
698 1 7.2937836838437609e-01 2.2319093135278361e+00 6.1927156009715913e+00 0 0 0
4289 2 3.5201458993619250e-01 2.6779746018836725e+00 7.8144861859702326e+00 2 1 0
675 1 3.6467997694398457e-02 3.5633494679964963e+00 6.0290561949292298e+00 0 0 0
1092 1 -1.3784653025739591e-01 4.0792482713303606e+00 9.4335020013679820e+00 0 0 0
1498 1 8.1191276384407673e-01 7.8498430810655984e-01 6.4152837368649029e+00 0 0 0
978 1 8.9880295263298704e-01 1.1639199661619346e+00 8.3366434436737968e+00 0 0 -1
3611 2 8.5211260509747111e-01 7.7084699764061437e-01 5.3420286308536991e+00 0 0 1
1067 1 7.8763279659099716e-01 2.2861744868333918e+00 8.5268096029778295e+00 0 0 -1
1186 1 5.6856123730624819e-01 1.9414271139941439e+00 7.2635775472307067e+00 0 0 0
601 1 1.9780708812827053e-01 4.3114222156762319e+00 5.2906100420880380e+00 0 0 0
3115 1 3.7555568295764186e-01 3.4209098749585434e+00 8.7079299845882616e+00 1 0 0
1638 1 2.0075395616730574e-01 4.5226114011596099e+00 7.6940139562681535e+00 0 0 0
1482 1 4.7834334481352414e-01 3.3288180457600820e+00 5.0931206416355082e+00 0 0 0
1080 1 1.2143905954724206e+00 1.4428462050973854e+00 5.6782028321175453e+00 0 0 0
621 1 1.6433294974630941e+00 3.9890042554039873e-01 5.5301975224121636e+00 0 0 0
1109 1 1.5982652366623893e+00 9.5382143038650280e-01 7.5310559943923430e+00 0 0 0
3512 2 6.8408705717252971e-01 4.1203100207483612e+00 6.1145436485975457e+00 0 0 1
1107 1 1.6224291985629535e+00 6.5493227878378069e-01 9.2807936795450257e+00 0 0 0
1213 1 1.4117150831908265e+00 1.5763598565928978e+00 6.7306441296403463e+00 1 1 -1
569 1 9.2639202381014318e-01 3.2928004209134096e+00 7.7834168666435275e+00 0 0 0
70 1 1.0342863005934531e+00 2.9796276677866276e+00 9.3402009693982926e+00 0 0 -1
583 1 5.7139074941434087e-01 3.8564532706299599e+00 6.9578557823440716e+00 0 0 0
1114 1 1.0896058772126316e+00 2.4462721154054021e+00 5.2627891605880324e+00 0 0 0
659 1 1.0111961548249830e+00 3.3020742819363407e+00 6.0800653651486316e+00 0 0 0
3658 2 1.7575032774672867e+00 9.0539333265576039e-01 8.4416214914129881e+00 1 1 -1
948 1 1.4971903006484759e+00 2.0413875690976213e+00 7.7819871720061933e+00 1 1 0
3461 2 8.4328204009894092e-01 3.8407702119231741e+00 9.3061818683161341e+00 0 0 -1
1318 1 1.7022361626906148e+00 1.7449881829196177e+00 8.8254657858513710e+00 1 1 0
1015 1 6.1332966417984136e-01 4.5282607086116116e+00 8.5957267563526258e+00 0 0 -1
2072 1 1.8701910749133726e+00 6.0998669531298355e-01 6.6005641223649851e+00 0 0 0
1591 1 1.2708748761786810e+00 2.7789923806342061e+00 6.9511659748532848e+00 0 0 0
1614 1 2.3728766762085978e+00 2.4089765361369811e-01 8.5077073632275564e+00 0 0 0
108 1 1.3198993846392753e+00 4.2907633200483302e+00 7.6830396669118306e+00 0 0 -1
3699 2 1.6769657831304534e+00 2.4105070206942125e+00 9.4097796022237308e+00 0 0 -1
3918 2 8.0184030456739008e-01 8.6918753089722567e-01 9.3194261365969915e+00 1 1 -1
1683 1 2.2192847780187650e+00 1.4039409901389579e+00 5.9268709986012373e+00 0 0 0
1187 1 1.7559303912044801e+00 2.3528567862626097e+00 6.0958353984136426e+00 0 0 0
227 1 1.3813853322025049e+00 3.8693159196668527e+00 8.6623149190059969e+00 0 0 0
1093 1 1.2766456089656626e+00 4.1179026511244903e+00 5.4584166978527442e+00 0 0 0
973 1 1.6776634462407274e+00 2.8288181711940936e+00 8.5472067734350983e+00 0 0 -1
3755 2 1.4338101984032368e+00 3.7252427711977694e+00 7.0005298932839359e+00 0 0 0
1402 1 2.7809640074490316e+00 6.4567752134681841e-02 9.6357558406207104e+00 1 1 0
4159 2 -4.9505718865800946e-01 1.8275954047198526e+00 8.8037446039410892e+00 1 1 -1
4177 2 1.8657004139467075e+00 1.9598017201033053e+00 5.2895225564562205e+00 1 1 0
3713 2 1.7565952522259551e+00 3.2240476114177703e+00 5.6502533090201306e+00 0 0 0
1155 1 1.4129287490523923e+00 4.4653283297133806e+00 6.5891101060992154e+00 0 0 0
4223 2 -3.9416076782225939e-01 1.6229701530578138e+00 7.2381720930501183e+00 1 0 0
3739 2 2.6011886319681976e-01 2.3297201001106327e+00 9.1758251467249998e+00 0 0 0
409 1 5.2726570459490363e-01 7.6796133072832964e-02 5.6796643180424216e+00 1 1 0
704 1 2.4023222046724491e+00 1.3820522005046063e+00 8.1221144021110998e+00 0 0 0
1099 1 1.6642894617673254e-01 4.7105216312147373e+00 6.5505305274759378e+00 0 0 0
359 1 3.6367344638603083e-02 6.2894348475835943e-02 6.7717219669390207e+00 1 1 0
1900 1 2.7816322867412215e+00 1.0140333023567286e-01 6.5831343349069060e+00 1 1 0
323 1 -2.9247761340382161e-01 2.9702112731577670e+00 9.4541047689410647e+00 1 1 -1
3961 2 1.4025608938418657e+00 4.7193704948556832e+00 9.1877090991577006e+00 0 0 0
1606 1 2.3380861432491211e+00 1.6781845253620884e+00 7.1168691999299085e+00 0 0 0
1146 1 1.9974545527168843e+00 3.3314558803313434e+00 7.6141785184737660e+00 0 0 0
1128 1 2.8303307939167679e+00 5.4061123018950652e-01 5.6121143303249621e+00 0 0 1
1083 1 2.5733977964106396e+00 1.0677639044417919e+00 9.1500902249005538e+00 0 0 0
733 1 2.0838933018421217e+00 3.1768122244762362e+00 9.5141535783040538e+00 1 1 -1
1090 1 2.0742582407848693e+00 1.1648985640442580e+00 4.9017033791044566e+00 0 0 0
937 1 1.0304473653611088e+00 4.9407042862450554e-02 7.0996812017238398e+00 1 1 0
1133 1 -1.0129835766396738e+00 3.5197740670218396e+00 6.1136548087380573e+00 0 0 0
4231 2 2.2635036951539584e+00 4.7224275362453367e+00 6.6295326954426956e+00 1 0 0
56 1 9.9951241306838512e-01 1.9070107406425256e+00 9.5991948373808604e+00 0 0 -1
1434 1 1.2866035261711082e+00 1.4672293367632058e-01 8.3954217017031372e+00 0 0 0
3868 2 2.9949001798379360e+00 8.0331806078975121e-01 8.4024309281771412e+00 0 0 -1
4064 2 3.6028313480733329e+00 1.3949963501933488e-01 7.8094856661968191e+00 1 1 0
186 1 2.2711910932185013e+00 4.3972449847305732e+00 8.3108327693564465e+00 0 0 0
538 1 2.9961682329961050e+00 1.1242191214098203e+00 6.5580588662660153e+00 0 0 -1
1199 1 2.8537931560131793e+00 1.7883847512561115e+00 4.9648511983468664e+00 1 1 0
4081 2 2.2470840007714270e+00 3.9221355239867632e+00 9.0691937262725766e+00 0 0 -1
1177 1 2.3614920355913007e+00 2.7391748239911733e+00 5.2260090379242667e+00 0 0 0
1853 1 2.8864820154908628e+00 2.1723174538730881e+00 5.9772915104853110e+00 1 1 1
2088 1 2.3277028329098286e+00 3.9512152888831111e+00 5.3623847092460979e+00 0 0 0
127 1 2.0736382802215680e+00 3.6553657971025579e+00 6.3427765532042786e+00 0 0 0
1183 1 2.5478183961195935e+00 3.4104493870672243e+00 8.5137588818941570e+00 0 0 0
1453 1 2.4889061624593012e+00 2.3515430909448964e+00 8.9839677242444864e+00 0 0 -1
4241 2 3.0770134044802187e+00 1.3303998095013141e+00 5.6861161662341928e+00 1 0 -1
1569 1 2.8717713142337145e+00 5.6664190770044454e-01 7.5850305149117325e+00 0 0 0
1175 1 3.3079407835655772e+00 1.5635912462703780e+00 7.5174381610129251e+00 0 0 0
547 1 2.4338373138693794e+00 2.7800360537516213e+00 6.7970149028594955e+00 0 0 0
899 1 2.6118662915218973e+00 2.4585630615228879e+00 7.8877160549344953e+00 1 1 0
3737 2 2.8382211795541350e+00 3.5927774073687462e+00 6.7618124656580445e+00 0 0 0
2135 1 2.3485372808126668e+00 4.1906802763759501e+00 7.2408552578690930e+00 0 0 0
1630 1 3.2608368563915251e+00 1.7270218416584988e+00 8.6097046068757308e+00 0 0 0
1590 1 3.4420346966488098e+00 1.7927747566801072e-01 8.7208632202473062e+00 0 0 0
3518 2 1.2081543595901132e+00 2.9307082762858878e-02 6.2673495640124042e+00 1 1 0
153 1 -7.2768495040281522e-01 4.3844532816379962e+00 4.8665265517031155e+00 0 0 1
1491 1 1.3473048202233298e-01 6.9973401572903549e-01 4.8396657716783711e+00 0 0 -1
4198 2 -2.4097386428855398e+00 9.2419189604016072e+00 4.3503818614626528e+00 1 0 1
36 1 -1.8835864217483360e+00 7.3153256219668803e+00 2.4612126892795092e+00 0 0 0
3525 2 -1.9048293045834668e+00 7.7412790082250860e+00 7.7021894383041756e-01 0 0 0
209 1 -1.8954502689159072e+00 6.9438341201828990e+00 5.8626758430688730e-01 0 0 1
1028 1 -1.2451338802414502e+00 5.7368182618895345e+00 1.4232466720308470e+00 0 0 0
233 1 -1.0978673066806499e+00 5.3451846247472377e+00 3.5351234810717260e+00 0 0 1
482 1 -1.2991444865639106e+00 6.6749845315537097e+00 3.5481067275367444e+00 0 0 0
619 1 -2.0906275360482716e+00 8.6814385191337351e+00 7.0087281796539336e-01 0 0 1
327 1 -8.5853161797243538e-01 5.4470200043366486e+00 2.3530510157018094e+00 0 0 0
3204 1 -9.7181780639688109e-01 6.5037739637253340e+00 7.7244290278413796e-01 1 0 0
1782 1 -1.9693883106770342e+00 8.3292521794437544e+00 2.5290643414932314e+00 0 0 0
531 1 -1.2901758509615366e+00 7.4992376656013278e+00 1.2573222679017055e+00 0 0 0
988 1 -1.4356850973564610e+00 7.7452566927917266e+00 4.4002738986004921e+00 0 0 0
111 1 -5.8276161691072748e-01 5.5510397860165588e+00 4.0272040064711628e-01 0 0 0
565 1 -1.0585897060343681e+00 7.8871463560681798e+00 2.1818745643345978e+00 0 0 0
3732 2 -3.5954092894558709e-01 7.6385315436616530e+00 1.6843905678168780e+00 -1 -1 0
4234 2 -7.5751186472581833e-01 6.0131626866296797e+00 3.0773680976173110e+00 1 0 0
3486 2 -1.4642039419898318e+00 8.3443518027013521e+00 1.5009597727827313e+00 0 0 0
590 1 -1.8242654590778820e+00 7.7908782725875998e+00 3.4417154397787324e+00 0 0 0
648 1 -9.9818641090355786e-01 6.7090303437602188e+00 2.5741666829591514e+00 0 0 1
41 1 -1.9391855418789385e+00 8.7200337465065711e+00 3.5409916992023844e+00 0 0 0
828 1 -1.2070375878825468e+00 8.2929724369180757e+00 5.6712763809439715e-01 0 0 0
28 1 -1.9866021387017208e-01 5.6545847952196278e+00 1.4615674403660655e+00 0 0 0
641 1 -2.1148233683588415e+00 9.0046275809092702e+00 1.7184194316223953e+00 0 0 1
519 1 -5.1523875087632032e-01 6.6909538936220390e+00 1.7447833856416510e+00 0 0 0
7 1 -8.5091070682496772e-02 5.3932840524850398e+00 3.2654322885582521e+00 0 0 -1
3266 1 -1.1526477274705766e+00 9.3483183173179647e+00 3.0917142072791384e+00 1 0 0
1697 1 -3.4891090781845935e-01 7.4384720031239455e+00 8.3828952916715826e-01 0 0 1
739 1 -3.7280588702220219e-01 6.1690728089783962e+00 3.8531320253179882e+00 0 0 0
121 1 1.6651589179176529e-02 6.4737876549679925e+00 8.0413804340756467e-01 0 0 0
3505 2 1.1896773520118087e-01 5.5597237279063423e+00 2.4112491585475908e+00 0 0 0
3580 2 -1.5142876732134902e+00 9.0771314346512586e+00 4.3546125016697115e+00 0 0 0
2504 1 -1.0974166303878934e+00 8.8973244246016776e+00 2.1357746595905041e+00 1 0 0
4316 2 -1.2364898134197693e+00 8.3928496564279627e+00 3.0038073192832768e+00 1 0 2
3227 1 -1.2961487205155378e+00 9.1540835647202083e+00 1.1262914697837183e+00 1 0 0
164 1 -7.9017669806258328e-01 7.6145267944972108e+00 3.2538418202938897e+00 0 0 1
3170 1 -6.1357082853920120e-01 5.2898299248775222e+00 4.4136987489059312e+00 1 0 0
525 1 -9.6406011301741756e-01 8.6028093576848725e+00 3.9206117674093517e+00 0 0 0
1035 1 -5.1730300794880213e-01 7.1838111124579811e+00 4.1956818572639509e+00 0 0 0
487 1 -1.4411462300311280e+00 5.9708140991107275e+00 4.4874491682720912e+00 0 0 0
2956 1 -1.7159384580365522e+00 6.6073275138529048e+00 1.6365351320510517e+00 1 0 0
3603 2 1.7450213179889951e-01 5.8176557562581594e+00 4.4408287735665013e+00 0 0 0
45 1 -5.3961589335436377e-01 8.4073875666697955e+00 1.3759831269005283e+00 0 0 0
608 1 2.2960876497505778e-02 6.3454963136458131e+00 2.8086476533094378e+00 0 0 1
4257 2 -3.3343244729146893e-01 8.4313836330227314e+00 4.6768445253690766e-01 1 0 0
679 1 -5.6868942581695014e-01 9.2912211631010617e+00 4.6600845296606214e-01 0 0 1
638 1 -1.0697142197631360e-01 7.3362722525185520e+00 2.4834233020387968e+00 0 0 1
158 1 4.2804426696851072e-01 6.8354395028988284e+00 4.5658863543990060e+00 0 0 0
1712 1 -3.4598061917276812e-01 8.5177123616918511e+00 2.7467359850585056e+00 0 0 0
594 1 4.8149290093184605e-01 5.4620587351170418e+00 5.6138179023432444e-01 0 0 0
54 1 8.8246194929421762e-01 5.4222599234046598e+00 2.9032753703018432e+00 0 0 -1
549 1 -2.7734943452303584e-01 9.2362867784301095e+00 3.6003367129262980e+00 0 0 0
1036 1 5.9305728947736869e-01 6.1974289155266202e+00 1.8006171044394801e+00 0 0 0
3465 2 -1.3408308483740505e-01 9.0063506041757027e+00 2.0216586718586051e+00 0 0 0
2834 1 4.1149903132518206e-01 8.0371598831137465e+00 7.1675995390644198e-01 1 0 0
3668 2 4.2055962471410835e-01 7.7597684441203114e+00 4.3600337832350666e+00 0 0 1
2969 1 7.7888531266744643e-01 5.1962456185999057e+00 1.8012299641948444e+00 1 0 0
573 1 3.7279085248354171e-01 7.0671409207696412e+00 3.5072341033481313e+00 0 0 0
691 1 9.3239445568640700e-01 5.0397831381739069e+00 3.9032058863521515e+00 0 0 0
1631 1 6.4604802139106732e-01 6.1213914991154788e+00 3.5770477989066243e+00 0 0 1
1993 1 6.0504124788918556e-01 7.1722637188893072e+00 2.3403827575729830e-01 0 0 0
68 1 6.9485086339054369e-02 8.3036947567085857e+00 3.8283304072149726e+00 0 0 0
696 1 5.0119691563975088e-01 7.3240265811164988e+00 1.5436947389418660e+00 0 0 1
85 1 3.0216445803612668e-01 9.0008140132173224e+00 1.0280491639307403e+00 0 0 0
532 1 3.6166405475162833e-01 8.3015846534578106e+00 1.8883204810901972e+00 0 0 0
582 1 1.0722542037032943e+00 6.0444091008553489e+00 4.4480265347782142e+00 0 0 0
4283 2 8.5175712621412214e-01 6.2042238507908349e+00 2.6541776071274552e+00 2 1 -1
4032 2 9.1417449969273679e-01 6.7424557956123419e+00 1.0039416161489008e+00 1 0 0
1061 1 1.5893012406636400e+00 5.2174005599621385e+00 2.9507624245167557e-01 0 0 0
483 1 7.4471122488919406e-01 7.9450968367834243e+00 2.8946079258999364e+00 0 0 0
1163 1 1.3427698533360781e+00 5.8031806958747039e+00 1.1244069791768034e+00 0 0 1
542 1 8.9969910059936087e-01 7.0048117522205260e+00 2.4839163695102155e+00 0 0 0
3879 2 9.9093289557123976e-01 6.8101099162257750e+00 3.9725735630812049e+00 0 0 0
3815 2 -2.8306529086805465e-01 6.9506708773282631e+00 6.6394653739626150e-02 1 1 -1
193 1 6.1725042946613762e-01 9.2733916962106093e+00 4.0246267022488951e+00 0 0 1
1032 1 6.0558551588476783e-01 8.9865589118956422e+00 2.9861805093442464e+00 0 0 0
3828 2 1.4875670986842773e+00 5.6873516955306158e+00 3.6687872237277825e+00 0 0 0
1121 1 1.5942285643578185e+00 5.9395989843003560e+00 2.2166349295106222e+00 0 0 1
1055 1 1.1640141906553598e+00 6.2670317152687867e+00 1.8690288112933412e-01 0 0 0
1710 1 6.6104431054514556e-01 9.4810112217858240e+00 1.9756597705081367e+00 0 0 0
101 1 1.2657848749953784e+00 7.5897795190748534e+00 4.4005154911549527e+00 0 0 0
1253 1 1.4539009031130870e+00 6.8387089904023819e+00 1.6585213148396840e+00 0 0 0
1084 1 1.3989295829645130e+00 7.5242706813348788e+00 8.7230450942806792e-01 0 0 1
1303 1 1.5544657468957521e+00 6.4151014657158001e+00 3.1177580106845402e+00 0 0 0
1556 1 1.3262482401764553e+00 8.4488448842691302e+00 3.7102384410984581e+00 0 0 0
3696 2 1.1132564670133300e+00 8.6882867609388814e+00 2.3744569256618893e+00 0 0 0
763 1 1.3173175182746015e+00 8.5677268497463519e+00 1.0892007633697631e+00 0 0 0
1395 1 1.3922418554371307e+00 7.3759603780857130e+00 3.3922806962767886e+00 0 0 1
1605 1 1.3336100788102381e+00 7.9342469937721747e+00 1.9047051899253127e+00 0 0 1
780 1 1.2179291484500547e+00 9.0741392843981750e+00 2.1136100326165524e-01 0 0 0
564 1 1.8216453893786773e+00 6.7279792011861224e+00 4.1981336405770229e+00 0 0 0
1162 1 2.1054343037199827e+00 5.7851171215448609e+00 4.4113340136814720e+00 0 0 0
1468 1 -2.1371228390935157e+00 8.4755134441329147e+00 4.5635994368328916e+00 0 0 0
236 1 2.1727331772654983e+00 5.6080937430534590e+00 3.0307648459242369e+00 0 0 0
1636 1 1.9393097008316538e+00 6.6159799649962849e+00 7.8018536776460645e-01 0 0 1
287 1 -2.9652463692052455e-01 9.1205576026924025e+00 4.6449303904174535e+00 0 0 -1
3620 2 -1.3973494549293448e+00 8.9605030165435391e+00 7.7017302411140479e-02 0 0 0
4267 2 1.6047403242252518e+00 4.8542003566846654e+00 3.2228682884887871e+00 1 0 1
90 1 2.1729315708904497e+00 4.9252970979135364e+00 3.8479984162554617e+00 0 0 0
50 1 1.7041872752340941e+00 4.8394453583034842e+00 1.4079116412621127e+00 0 0 0
3631 2 1.0498971503522867e+00 4.9578147538077744e+00 8.7470969037001334e-01 0 0 1
1731 1 6.8391401333354773e-01 8.5519926503894883e+00 4.7308899971774894e+00 0 0 0
328 1 -3.7503783283841297e-01 8.0779766359450988e+00 4.7353775348407465e+00 0 0 0
655 1 2.2702272880441550e+00 4.9503205389554719e+00 2.2032054714942229e+00 0 0 1
4213 2 -2.0143084870245604e+00 9.5892502819255832e+00 1.0210058758026039e+00 1 0 0
513 1 1.5306168042586801e+00 4.9097838643893130e+00 4.7872566514023687e+00 0 0 0
19 1 -2.1685277885274994e+00 9.5547003600958540e+00 2.8144320697746958e+00 0 0 0
1058 1 -1.7095605275152770e+00 5.9315184434766461e+00 2.9394578592850813e+00 0 0 0
2957 1 -1.7095200031520579e+00 5.9656151154542965e+00 4.0716147471721647e-03 1 0 0
60 1 -1.0918475416961200e+00 7.3444083286234925e+00 7.6348170608285595e-02 0 0 0
183 1 -2.2897810298826031e+00 7.8204820040951128e+00 1.6562332202534629e+00 0 0 0
815 1 -2.2330634424653351e-01 9.6416016296091556e+00 2.5338485926603580e+00 0 0 1
3181 1 -1.9987180537621678e+00 9.4035112158285372e+00 5.1391472707946759e+00 1 0 1
143 1 -1.6275403145746825e+00 6.1917737516579479e+00 8.4827751627040318e+00 0 0 0
3744 2 -1.7840420968196007e+00 6.3862326497587558e+00 7.5991007938408792e+00 0 0 0
3025 1 -1.8743615633281050e+00 6.9007519759564726e+00 9.1922044892568167e+00 1 0 0
661 1 -1.1277660780788743e+00 5.4975805651945100e+00 9.0401707205240687e+00 0 0 0
611 1 -3.0448048676340522e-01 6.3879515210793398e+00 5.9412722248678627e+00 0 0 1
3107 1 -2.1623924715906386e+00 8.8669546456562323e+00 9.3061766937783066e+00 1 0 0
3247 1 -1.7130927666872906e+00 7.1568328399760723e+00 7.0966055054645221e+00 1 0 -1
3394 1 -2.0784223193010862e+00 9.0804115238711809e+00 8.2980447944262821e+00 1 0 0
168 1 -2.0245078702871724e+00 7.0981359978146630e+00 8.0801395387097017e+00 0 0 0
66 1 -4.7167841271331623e-01 6.1891715129076843e+00 4.8970307545176137e+00 0 0 0
286 1 -1.8239811244460507e+00 7.8623104615317922e+00 5.4035133108137492e+00 0 0 0
3894 2 -1.9464468404209088e+00 7.6544342331976560e+00 6.3808485677031141e+00 0 0 1
2185 1 -1.7776536093104225e+00 8.7836494601664743e+00 5.9426285190515618e+00 1 0 0
2848 1 -1.8307115111788947e+00 8.0734790304441653e+00 8.5613244866478677e+00 1 0 0
981 1 -1.0938035088010554e+00 5.8890533040562048e+00 7.4770143557193478e+00 0 0 0
2966 1 -1.3329318130537851e+00 6.8441223986299402e+00 5.1152187279405030e+00 1 0 0
185 1 -7.6403963344396497e-01 6.8390744613844232e+00 7.6561947057605719e+00 0 0 0
366 1 -8.8674270217323636e-01 7.2047865516591303e+00 8.6748201793270265e+00 0 0 0
863 1 -2.3074492663489368e+00 7.9683197857978332e+00 7.4172378280925528e+00 0 0 0
2958 1 -3.0228380417266809e-01 6.1325312044192026e+00 8.3622776104107750e+00 1 0 -1
2997 1 -1.0385735904028741e+00 6.5116452116071759e+00 6.6821489939631533e+00 1 0 -1
541 1 -1.1855350267419174e+00 7.3088375993566848e+00 6.0423274483424256e+00 0 0 0
1220 1 -1.0904115820889433e+00 7.7957818726040307e+00 7.7940303331753329e+00 0 0 0