LAMMPS data file via write_data, version 12 Dec 2018, timestep = 570240

4320 atoms
2 atom types

0.0000000000000000e+00 1.9309999999999999e+01 xlo xhi
0.0000000000000000e+00 1.9309999999999999e+01 ylo yhi
0.0000000000000000e+00 9.6549999999999994e+00 zlo zhi
-2.6261600000000023e+00 0.0000000000000000e+00 0.0000000000000000e+00 xy xz yz

Masses

1 1
2 1

Atoms # atomic

2691 1 2.2824659311209636e+00 2.4008152065727056e-01 1.5611606363450148e-01 0 0 0
4263 2 2.4363761954667336e+00 4.3952270003154403e+00 2.4848403009364750e+00 1 0 0
691 1 8.7327240886643009e-02 4.7465911569368480e+00 3.6045658088618895e+00 0 0 0
1380 1 3.0763226105569572e+00 7.4468104331062468e-01 1.4591160856894849e+00 1 1 1
1295 1 2.3053645303078292e+00 1.7042635666835254e-01 1.1512466870044649e+00 1 1 0
1054 1 8.0966411553474033e-03 9.1365033152117148e-01 3.9718151296466222e+00 0 0 0
3040 1 -2.0706312682093464e-01 4.7287011119682258e+00 5.2009711843347561e-01 1 0 0
1134 1 1.9486189684493943e-01 2.3803960465388494e+00 1.4888172603712488e+00 0 0 1
1651 1 3.6554386863435737e+00 1.5398972884114162e-01 3.8997157770447153e+00 0 0 1
1167 1 -1.2605728935901545e-01 1.9003160427364592e+00 4.5680581924605024e+00 0 0 0
1073 1 2.8029197868499445e+00 9.1133368758732472e-02 3.2789317351309424e+00 0 0 0
3127 1 -2.6542215103044131e-01 3.6000750982519101e+00 3.8858861135687963e+00 1 0 0
3884 2 1.5500314632835031e+00 2.8867608707095509e+00 4.5681744275611447e+00 0 0 1
3708 2 2.1124759859669401e-01 1.8479661368614093e+00 7.7299294811116626e-01 0 0 0
2941 1 -2.5921923905119598e-01 2.4978232811886611e+00 2.4293069080162444e+00 1 0 0
1554 1 3.2001030784438944e-01 1.0649084378173592e+00 4.5137410164638780e-01 0 0 1
572 1 4.9241748499131544e-02 2.6335183011940604e+00 3.8235074983252768e+00 0 0 0
751 1 5.4711852301587949e-01 8.7834519378957487e-01 2.9768668968233438e+00 1 1 0
3619 2 -1.1553064645985583e-01 3.0831076781053732e+00 3.0302214731040822e+00 0 0 1
656 1 -1.2894458978770595e-01 3.6642624731316804e+00 3.8994955937673975e-01 0 0 1
1022 1 -3.3365054371899616e-01 4.0363816244389117e+00 2.9593658767872553e+00 0 0 -1
1040 1 9.1178750205356129e-01 1.6223248624799553e+00 1.2716312037756834e+00 0 0 0
631 1 4.9892202965451010e-01 1.6821389903141413e+00 2.2637398551455274e+00 0 0 0
1039 1 1.1982602080128291e-01 3.4506915177387998e+00 2.2068242196303633e+00 0 0 0
4264 2 1.1401774290038049e+00 1.6124832159037199e+00 2.8422355722235157e+00 1 0 1
1166 1 4.9204852222862666e-01 3.4069945969880915e+00 1.1110115854081288e+00 0 0 1
1358 1 5.6146357967693983e-01 6.3038683239502280e-01 1.8503892141595926e+00 1 1 1
4119 2 1.0095933583709935e+00 2.5969729627342595e+00 3.8561905693170404e+00 0 0 0
663 1 6.7005803483749271e-01 2.4186532108223511e+00 3.0155366647699857e+00 0 0 0
235 1 8.1472023507378866e-01 1.6709124285818684e+00 3.7991544198793656e+00 0 0 0
968 1 9.8731820488877542e-01 2.4357094295084099e+00 6.1000018088693675e-01 0 0 1
3768 2 1.1594771522744891e+00 3.4019789143286485e+00 3.5489581697516309e-01 1 1 0
1198 1 5.3996626746271270e-01 4.3688872972791977e+00 1.2167525121646681e+00 1 1 0
550 1 7.5822843213704183e-01 4.5436589625171981e+00 2.7682535108860282e+00 0 0 0
1505 1 1.0685509635319366e+00 4.2895001403846384e+00 3.7008406143039392e+00 0 0 0
1007 1 9.4548984470053932e-01 2.2199583088042480e+00 4.7337044287360781e+00 0 0 0
3686 2 6.6433393513198258e-01 2.7491363296697431e+00 2.2041617945840559e+00 1 1 0
1440 1 5.7932971202172512e-01 3.4747558653132189e+00 3.2642656928815126e+00 0 0 0
2164 1 6.6514661086729121e-01 3.1779452403916140e+00 4.4214346772746671e+00 0 0 1
1783 1 1.3875296155203083e+00 1.0082356042838212e+00 2.2978820756475580e+00 1 1 0
505 1 1.2400863162306641e+00 2.8527523602407796e+00 1.5826701489184243e+00 0 0 0
568 1 1.4730817446892757e+00 2.0730972017752629e+00 2.2128788492271774e+00 0 0 0
575 1 1.4748252162107172e+00 9.9708659431079283e-01 3.3855272523572189e+00 0 0 0
1798 1 1.1708655570492617e+00 5.8160620816878361e-01 9.6241041857143883e-01 1 1 0
1062 1 1.6416260995536918e+00 2.2221206887444551e+00 3.4166228275777848e+00 0 0 0
664 1 1.2746663024814269e+00 3.8586477549805318e+00 2.0376521802834615e+00 0 0 0
3856 2 2.2145235501455849e+00 7.7869702330654644e-01 3.1399204034165864e+00 0 0 0
1019 1 1.4361482846366422e+00 3.8418211724407270e+00 9.9833529661070342e-01 0 0 0
1446 1 1.4536889330749014e+00 3.0382006717190100e+00 2.6396214307065362e+00 0 0 0
124 1 1.3369642281041512e+00 3.9143196750890743e+00 4.6684496346953805e+00 0 0 0
3699 2 1.7503293729290244e+00 2.3921550432233158e+00 1.7235564326266328e-01 0 0 0
3878 2 1.8588404577074040e+00 8.6732544839356163e-01 5.1932955428935512e-01 0 0 1
2360 1 1.8012850453624569e+00 1.6748665505764293e+00 4.3107861283072477e+00 1 1 0
1764 1 2.0440434053121743e+00 2.9428370679300255e+00 7.9397077788372195e-01 1 1 0
994 1 1.7233871384775430e+00 4.0324757740639043e+00 2.9891648489162237e+00 0 0 0
870 1 1.8740179029049053e+00 2.0020147136374384e+00 9.7569873099483351e-01 1 1 1
1029 1 2.6315831905536884e+00 1.2556651317077454e+00 6.8070718821110321e-01 0 0 0
3703 2 1.9613854351808098e+00 3.4381257205692282e+00 1.5576557340693864e+00 0 0 0
574 1 2.7363065964746003e-01 4.2290904775902254e+00 4.5582710553054691e+00 0 0 0
1357 1 1.9102477195647780e+00 1.1178804727469698e+00 1.4203559429043127e+00 1 1 1
1081 1 1.5556375968721947e+00 3.2961323313610214e+00 3.7905417923529736e+00 0 0 1
814 1 2.3647955106426966e+00 2.6057924863363282e+00 4.2711904675077177e+00 1 1 0
3533 2 2.1589360626525886e+00 2.4990904309225699e+00 2.6068669080964870e+00 1 1 0
722 1 2.6726309340416279e+00 1.6341772451090686e+00 1.9189317471777692e+00 1 1 0
1051 1 2.4348757545501418e+00 4.0316255821723876e+00 5.0814539726063090e-01 0 0 0
669 1 2.1609909788320190e+00 4.3483610314675305e+00 1.5784661629356087e+00 0 0 1
1147 1 2.4461912696002486e+00 6.5375444524848636e-01 2.2362949901943274e+00 0 0 1
1462 1 2.2770666065522422e+00 2.5963289330146311e+00 1.7394598745614052e+00 0 0 0
3757 2 2.7468613936064674e+00 2.1373991274183424e+00 1.0655368127344740e+00 0 0 1
1194 1 2.1976832678805129e+00 1.5780876930970986e+00 2.8595223260227143e+00 1 1 0
580 1 2.6280575521959024e+00 9.9025451073464066e-01 3.9183059570942591e+00 0 0 0
1271 1 2.3464857892072675e+00 3.4011807625197235e+00 2.3628584892169009e+00 1 1 0
1615 1 2.5258520286783379e+00 2.1637377869194783e+00 1.7609028588201367e-01 0 0 1
567 1 2.8474746615958955e+00 3.5146282870633390e+00 1.3529580744720291e+00 0 0 0
1511 1 2.4395556996317036e+00 2.9495555967904248e+00 3.3257128695016580e+00 0 0 0
3756 2 3.5629704960286754e+00 1.0059214942467185e+00 6.5054388405006036e-01 0 0 1
30 1 2.2472707290452707e+00 3.9890483181345111e+00 4.0046454049830436e+00 0 0 0
1071 1 2.8331533513107181e+00 1.7313336617474202e+00 4.6199485317534004e+00 0 0 -1
2197 1 3.0183722712066325e+00 2.3510035870512014e+00 2.6025206515048138e+00 1 1 0
3865 2 3.0286185045336680e+00 4.3495815286626405e+00 1.0530768719481927e+00 0 0 0
1785 1 3.1714184990982321e+00 1.0970715220931380e+00 2.9273153566039274e+00 1 1 0
3775 2 3.5637929619702233e+00 1.8633878912927018e+00 2.0774191968644624e+00 1 1 0
860 1 3.1944443780346483e+00 3.4627308661815559e+00 3.9821710400524539e+00 1 1 1
1351 1 3.5170554803704950e+00 1.6730090378843767e+00 1.1968857539410696e+00 1 1 0
1561 1 3.3630074208033447e+00 3.4152650343016351e+00 2.3263478091759633e+00 0 0 0
1458 1 3.1789166686574095e+00 1.4509011564942670e-01 6.0762997399944607e-01 0 0 0
1617 1 3.2567051520512234e+00 2.8673919826138796e+00 4.7291862037957566e-01 0 0 1
566 1 3.3934223309518377e+00 2.6455514650368008e+00 1.5914867942888815e+00 0 0 0
1428 1 3.1249944714769979e+00 4.3811793892873467e+00 1.9466915894656383e+00 0 0 0
534 1 2.9173567308349511e+00 3.9236735632861266e+00 3.1160672668095803e+00 0 0 0
1573 1 2.9345728808854092e+00 2.0859026249244161e+00 3.6266294774097108e+00 0 0 0
1855 1 4.1331138927905142e+00 6.0572143174924509e-01 1.2287707533774770e+00 1 1 1
1721 1 3.7063401060593097e+00 2.8823304212895615e+00 3.2813360020067712e+00 1 1 0
1621 1 4.5334505726745640e+00 4.6839162950293867e+00 3.1985618642810278e+00 0 0 0
767 1 4.2193268121488803e+00 2.4219412709504788e+00 8.9949457489729245e-01 1 1 0
1506 1 3.7892791656353415e+00 3.7702929370073281e+00 1.5216731458030441e+00 0 0 0
1950 1 3.7581090136329571e+00 1.4604490600843589e+00 3.9817602345817700e+00 0 0 0
537 1 3.5327001132025151e+00 2.5913566464091242e+00 4.3529671870967510e+00 0 0 0
1897 1 3.9291969578720409e+00 1.1523428067391370e+00 2.1560620036855900e+00 1 1 1
991 1 3.8705495476722782e+00 1.8690548456139122e+00 2.9771398048728934e+00 0 0 0
3946 2 3.8516280801468668e+00 2.7776283293010335e+00 2.4249947571403321e+00 1 1 0
1455 1 4.2124493370893425e+00 8.5288205387650240e-01 3.2330663293180448e+00 0 0 0
3468 2 4.3213758977523016e+00 3.0228060765201565e+00 1.5814958818767069e+00 -1 0 1
1682 1 4.1523729860535932e+00 4.0192911727161951e+00 4.1127484971479271e+00 0 0 0
1535 1 3.9160654724550783e+00 3.8863030840706982e+00 3.1187083649364191e+00 0 0 0
3503 2 4.0767848175224408e+00 2.2998397424092638e+00 3.7936877916902874e+00 -1 0 2
2101 1 4.3533616576605567e+00 2.2132674067698681e+00 1.9251881874193892e+00 0 0 1
1437 1 4.4154651606769573e+00 3.4438070821475666e+00 2.3165018788674154e+00 0 0 0
1103 1 5.1997695120210423e+00 9.9965644055110625e-01 4.2511018486096370e+00 0 0 0
3764 2 5.0416777229679441e+00 2.3213930059055219e+00 1.0567921422188096e+00 1 1 -1
1858 1 4.6974044060804303e+00 1.6479124267481502e+00 3.6432396475529600e+00 1 1 0
889 1 4.4516895900323883e+00 2.0922636443562337e+00 4.5954019301885580e+00 1 1 0
2076 1 4.6729008648914130e+00 2.6929910439786116e+00 3.0047690334570016e+00 0 0 1
2946 1 4.6138594207585699e+00 1.4610660203946884e+00 1.2171322144849788e+00 0 0 0
3676 2 5.0018365393824240e+00 2.6955363436471975e+00 2.1839233685362491e+00 1 1 1
2969 1 -3.7780875751205700e-02 4.5247546765646218e+00 2.1415842426597260e+00 1 0 0
1564 1 4.6219691712194546e+00 4.4315779900433192e+00 4.7146175834278231e-01 0 0 1
3097 1 4.8349879642070759e+00 5.7254733796920554e-01 2.2231415811190254e+00 0 0 1
1519 1 4.8509307071215257e+00 1.5813811928783783e+00 2.6237889518279638e+00 0 0 0
952 1 5.2145709483851457e+00 3.0687260323999364e+00 1.4589504228044259e+00 0 0 0
503 1 4.8035766776167517e+00 4.0040918258086871e+00 1.4393170234217505e+00 0 0 0
2176 1 5.2737289922803043e+00 6.1486963012374662e-01 3.2874132202075996e+00 1 1 0
2421 1 4.9412943397292528e+00 3.6521576268947569e+00 3.3631107761318519e+00 0 0 0
1425 1 4.4672211164525129e+00 3.0143375043696725e+00 4.0803676549482759e+00 1 1 0
2330 1 5.1261989536275792e+00 6.4290901628824892e-01 6.1748024987728978e-01 1 1 1
1160 1 5.4723492849043733e+00 2.0600056662899626e+00 1.7169475640695373e+00 0 0 0
4041 2 4.3365044431820969e+00 7.3893165578165199e-01 4.1156225971523757e+00 1 1 0
555 1 -8.8852602602617542e-02 1.2204403782190836e+00 1.3862717507139788e+00 0 0 0
2098 1 3.5248626510756660e+00 3.8969555167075747e+00 4.9161621941006084e-01 0 0 1
34 1 -3.0491478252515947e-01 2.5847503976307791e+00 5.9262926825610618e-01 0 0 0
4081 2 1.4832182053063363e+00 4.4669625112423255e+00 4.5060747273788443e-01 0 0 0
1818 1 1.7946107873808841e+00 9.7290724068074499e-02 2.8640079857384055e+00 1 1 1
975 1 5.4782250815481826e+00 1.9949986943562878e+00 4.4411997054682866e+00 0 0 0
2513 1 5.4682514005784437e+00 1.6383879534615235e+00 7.0579519134689217e-01 0 0 0
2568 1 5.5949437158131454e+00 9.3354619473632472e-01 1.5507027309857628e+00 0 0 0
878 1 3.2701065993426508e+00 7.6146094380656715e-01 4.6801646931349250e+00 1 1 0
1870 1 4.6420438112001357e+00 1.7523692749667310e+00 2.7833379721537835e-02 1 1 1
4177 2 5.9752679369329009e-01 1.4219963975185699e+00 4.7000144266395552e+00 1 1 0
3627 2 1.3591843232521135e+00 4.5478036402569781e+00 1.4971735369419805e+00 0 0 1
1001 1 4.4567311726865118e+00 3.4548958204238023e+00 6.5238154544429039e-01 0 0 0
2174 1 3.8900280762562783e-01 5.8486363890933341e-02 3.0520693358612161e-01 1 1 0
1090 1 1.0780633827697450e+00 7.2431807138364690e-01 4.3337044385333421e+00 0 0 0
1242 1 1.3382603944691926e+00 1.5241829628899588e+00 2.5170342084080366e-01 1 1 0
1359 1 3.4846453248996965e+00 1.8106440144730840e+00 1.7326739297641186e-01 1 1 1
2996 1 -4.8195486636176227e-01 4.1373510374242262e+00 1.3225429474079706e+00 1 0 0
1098 1 5.0495910414866110e+00 2.6992530490654607e+00 2.5057289029655933e-01 0 0 1
4116 2 2.6757819938659733e-01 4.7778315509911079e-01 1.1044386353358577e+00 1 0 -1
1117 1 7.0913618837692916e-01 4.1598622566029047e+00 7.2903151969513913e-02 0 0 1
3602 2 2.6501341143603030e+00 2.0609224728324230e-01 4.4928745772507472e+00 0 0 0
1572 1 4.1129934338196872e+00 4.5014937659417065e+00 2.1986851985000881e+00 0 0 1
976 1 1.9421229139282139e+00 1.7338214872585886e-01 3.9772145144601665e+00 0 0 0
481 1 -1.7805561551352733e-01 1.6457169352079724e+00 3.2623898400763829e+00 0 0 0
1513 1 3.9341910333079166e+00 4.7892848036412383e+00 1.1297352159920693e+00 0 0 0
508 1 2.3344111675982586e+00 4.7976025791786210e+00 3.3264532654404140e+00 0 0 0
1484 1 3.5176738815133208e+00 1.7417319851289759e-01 2.4533358338417162e+00 0 0 0
628 1 3.2765147570173330e+00 4.3825737493669861e+00 4.6959325747822138e+00 0 0 0
1563 1 4.1479862172619910e+00 8.0257442705308724e-01 1.0213199028588768e-01 0 0 1
1550 1 5.2057740339775735e+00 1.4519380696324499e-01 4.7772944887687485e+00 0 0 0
1644 1 4.8124670143450192e+00 3.7569423873014651e+00 4.8113014676748325e+00 0 0 0
1696 1 4.3207254413666352e+00 4.8188516518897790e+00 4.7161221228574446e+00 0 0 0
1499 1 4.0700630710242853e+00 2.6443469757440186e+00 9.5170208869874440e+00 0 0 0
1899 1 4.3232926372067926e+00 1.0726054099473867e+00 4.8992555916809986e+00 1 1 0
4231 2 1.4176725765852121e+00 4.7279590458275340e+00 7.0342276725308119e+00 1 0 0
3752 2 7.7229079127612488e-01 2.0986684082068932e+00 6.9056297248092626e+00 0 0 0
993 1 3.9414943366332249e+00 4.7397100117130941e+00 7.3461248652207418e+00 0 0 0
893 1 2.6890763648989418e+00 3.9872752876636969e-02 5.6350587145521214e+00 1 1 0
2095 1 4.2096089413171347e+00 7.5520824315088608e-02 4.8544480802497620e+00 0 0 0
1482 1 -2.0472411828769796e-01 3.3246001375565442e+00 5.0018829783167256e+00 0 0 0
1434 1 1.6473901787109402e-01 2.2321240742957986e-02 8.8454386934626399e+00 0 0 0
4289 2 -7.9485729222830870e-02 2.7726456473737171e+00 8.0695687020298550e+00 2 1 0
1714 1 2.7563658890733005e+00 1.3416548307256249e-02 8.9160188469852759e+00 1 1 -1
3115 1 -1.7281126940843061e-01 3.4801566092814746e+00 8.8283540880350699e+00 1 0 0
1080 1 4.9854255085677091e-01 7.9633349730614778e-01 6.0217269690274948e+00 0 0 0
1443 1 4.1644401827164614e+00 4.7028210537632011e+00 8.3519817944256580e+00 0 0 0
3512 2 -3.4402781535109661e-01 4.3102472859637437e+00 6.1922477687780386e+00 0 0 1
1107 1 3.1796842123213620e-01 9.9688580450977626e-01 9.1065174212956101e+00 0 0 0
1213 1 4.1632594765982767e-01 1.2182430623292577e+00 6.9673086648358824e+00 1 1 -1
569 1 3.9167368594532120e-01 3.4187158584929627e+00 7.8175647106245485e+00 0 0 0
583 1 4.6232796122532061e-02 3.6949414994743042e+00 6.7781868828680727e+00 0 0 0
1114 1 3.6736793740020979e-01 1.7260643578626635e+00 5.4906981129945747e+00 0 0 0
659 1 3.5779176384037115e-01 2.9491320615283039e+00 6.0099156779084515e+00 0 0 0
3658 2 9.6947937369560533e-02 1.7056340536462298e+00 8.5112573553352213e+00 1 1 -1
948 1 4.1213370732261451e-01 2.0130431478182702e+00 7.7143494067299665e+00 1 1 0
3461 2 -6.7084617563277327e-02 4.2814829561245089e+00 9.3556893500114988e+00 0 0 -1
1318 1 9.3953831780820174e-01 1.6959848893779033e+00 8.6169120575166165e+00 1 1 0
1015 1 1.0093443590205209e-01 4.4780042486030665e+00 8.5234943999670296e+00 0 0 -1
2072 1 2.7704771068216066e-01 8.8575330896232252e-01 8.1579984357104287e+00 0 0 0
1591 1 8.4020453466018497e-01 2.9440874634727403e+00 6.9365175487382364e+00 0 0 0
1614 1 1.2086559245509956e+00 5.1937543788777374e-01 8.4977782575765168e+00 0 0 0
108 1 8.6067350129894227e-01 4.4271028887862744e+00 7.7071314799383108e+00 0 0 -1
621 1 1.2853636504673609e+00 2.3179195628790678e-01 6.5491405562688065e+00 0 0 0
1683 1 1.3239334130526563e+00 1.3682081617242909e+00 5.3620970016375216e+00 0 0 0
1187 1 1.2197898864031009e+00 2.2469039079145574e+00 5.9736242494847023e+00 0 0 0
227 1 8.2662564048732157e-01 3.7799509933246602e+00 8.7622398315131331e+00 0 0 0
1093 1 4.6056825923301148e-01 3.9684153244659686e+00 5.5718802620418080e+00 0 0 0
973 1 7.0682670123878122e-01 2.6556070660148166e+00 8.5913722899984162e+00 0 0 -1
3755 2 1.1904605418745737e+00 3.6254210316489104e+00 7.4788368095680093e+00 0 0 0
3713 2 1.3305012453195029e+00 3.1606113300964949e+00 6.2311176887458952e+00 0 0 0
704 1 1.3008960276120900e+00 1.3772751641316328e+00 7.6140802631851852e+00 0 0 0
1606 1 1.2957470958244295e+00 1.3732673060755904e+00 6.5028323463097930e+00 0 0 0
1146 1 1.5111389506846598e+00 3.2591874109087202e+00 8.1714179695639189e+00 0 0 0
1128 1 1.2371728901046890e+00 3.2400810534218089e-01 5.3539029123639059e+00 0 0 1
1083 1 2.1467775451826121e+00 9.7436184013212712e-01 9.1079772455210986e+00 0 0 0
127 1 1.1064925510867780e+00 3.9738609530429554e+00 6.6194063315605565e+00 0 0 0
1569 1 8.5561391253718533e-01 3.7349457880984999e-01 7.5015321394950316e+00 0 0 0
1177 1 2.1563987039499404e+00 2.9328788472429723e+00 6.0046121260503345e+00 0 0 0
1453 1 1.5593765591765905e+00 2.9684444102990106e+00 9.1902540201605785e+00 0 0 -1
1865 1 2.2747205613885115e+00 5.2197264494160700e-01 8.1226905769197035e+00 1 1 0
3868 2 1.7793191116518594e+00 1.3054794572570019e+00 8.3848132935186985e+00 0 0 -1
538 1 2.0298018705685581e+00 7.8750325325374215e-01 5.9285158836705110e+00 0 0 -1
2088 1 1.7275151098915291e+00 3.8970764239962850e+00 5.7095614833911794e+00 0 0 0
547 1 1.6136582993720907e+00 2.2143282071855817e+00 6.9317252347861817e+00 0 0 0
186 1 1.5781532666825560e+00 4.4985913707342631e+00 8.5473260867145431e+00 0 0 0
1183 1 2.3426345728699021e+00 3.7846443986027571e+00 8.5397436899446522e+00 0 0 0
899 1 1.6458107457020985e+00 2.2260491715659985e+00 8.1229402752853943e+00 1 1 0
4241 2 2.2157005924351538e+00 1.5655875403887702e+00 5.2413051592562772e+00 1 0 -1
2135 1 1.9021923959595117e+00 4.2871640537307565e+00 7.5971460002229927e+00 0 0 0
1853 1 2.2517601190643530e+00 1.8194792918007849e+00 6.1533365309906731e+00 1 1 1
1630 1 2.4763799504066291e+00 1.5280704042799491e+00 7.9411228363409663e+00 0 0 0
3123 1 1.8134065409427618e+00 3.3017180215572397e+00 7.0420141081267342e+00 1 0 0
3849 2 3.0563069435669625e+00 4.0829440276635074e+00 9.3772968126400880e+00 0 0 0
3565 2 5.1266967102795089e+00 4.6137517184485084e+00 4.9503180152744344e+00 0 0 0
3737 2 9.8125881892889943e-01 2.6183812739942778e+00 7.7276803588346823e+00 0 0 0
4101 2 2.4130426182227569e+00 3.5636398301761605e+00 7.6622191374422695e+00 0 0 -1
954 1 2.3840189705387687e+00 2.7059457049147300e+00 7.6440336303833636e+00 0 0 -1
1349 1 3.6395131525344659e+00 6.0947118311544934e-01 5.5922244557286973e+00 1 1 0
3016 1 2.2275910036315980e+00 4.1754007530771728e+00 6.5205821079711388e+00 1 0 0
2057 1 3.0249025791613438e+00 1.0142743148113098e+00 6.3858183158285291e+00 0 0 0
3796 2 4.0196393062029694e+00 3.5170807011431875e+00 9.5939475366684572e+00 1 1 -1
1016 1 2.4388776720439735e+00 4.6974261824349979e+00 9.2233979145631491e+00 0 0 -1
1836 1 3.5470732397239453e+00 1.5852461463531375e+00 7.8461665217444567e+00 1 1 0
1665 1 2.8388852725861273e+00 1.8910917586999343e+00 7.0935539519503203e+00 0 0 0
1626 1 3.2909849134313616e+00 7.6190916642116502e-01 8.4397166771462935e+00 0 0 0
1647 1 3.1304779663784261e+00 1.6490049337274149e+00 5.5366069295608007e+00 0 0 0
1078 1 3.2366372005343629e+00 3.3635183881860975e+00 8.0080038732724361e+00 0 0 0
1301 1 2.1548627367814892e+00 9.7225530908896507e-01 7.0514631199747733e+00 1 1 -1
3577 2 2.3806017433649984e+00 2.5943637925775374e+00 6.7394553583993844e+00 0 0 -1
3978 2 3.0619539883885327e+00 2.2947831543586301e+00 7.9662615637138776e+00 1 1 0
1514 1 3.3803940960842498e+00 3.3070269087903923e+00 9.0788226486446213e+00 0 0 -1
1085 1 2.7614309383633833e+00 3.8081422410596257e+00 5.6944333250599497e+00 0 0 0
624 1 2.6485771175742285e+00 2.6359183635743402e+00 8.6239576313691728e+00 0 0 0
961 1 2.9387672329581491e+00 4.2970432167508434e+00 7.4079409475988918e+00 0 0 0
1691 1 2.8929900722096189e+00 1.6424548993707351e+00 8.8899615688106532e+00 0 0 0
3924 2 3.5161781998260957e+00 1.4153917814086199e+00 6.9866014529776352e+00 1 1 -2
670 1 2.8715368709663203e+00 3.2817347772942518e+00 6.8824450620972861e+00 0 0 0
1907 1 4.0346276749840175e+00 7.8529074279010069e-01 6.6319726404067190e+00 1 1 0
1435 1 3.6505343486681103e+00 2.5527091049612465e+00 7.3997546120423401e+00 0 0 0
784 1 4.3276327783335722e+00 1.7106859868678930e+00 7.0610588858989036e+00 1 1 0
1153 1 3.2071397128887651e+00 2.4097916815040872e+00 6.2729219258063234e+00 0 0 0
1848 1 3.8201318220309366e+00 3.6382168811508313e+00 7.0930686568086259e+00 1 1 0
1640 1 3.8123298295775592e+00 2.4987319843240763e+00 8.4205900344153903e+00 0 0 0
1030 1 3.6092343526319270e+00 3.3371506273475626e+00 6.1012455302058148e+00 0 0 0
1566 1 3.2698332641164454e+00 4.2045127781731066e+00 8.5833860997110545e+00 0 0 0
2385 1 4.9168091408638039e+00 1.7174419827003378e+00 8.5756322205635254e+00 1 1 0
1184 1 3.3291610030855288e+00 4.2583541196593053e+00 6.4248380028972178e+00 0 0 0
1654 1 4.1609818076891631e+00 1.6141268521887375e+00 5.8835066748799658e+00 0 0 0
3838 2 3.2653914544232507e+00 4.5065332922858081e+00 5.5369148228467262e+00 0 0 0
1142 1 4.0202810800305961e+00 4.3429420208057925e+00 9.3293319209079151e+00 0 0 0
1396 1 4.2662301976426402e+00 7.5369019603227205e-01 7.6694611358337887e+00 1 1 0
1049 1 3.8298867093976110e+00 2.4557753969271441e+00 5.4068791979721968e+00 0 0 0
3787 2 3.8074851541926460e+00 4.0310718948566073e+00 7.8618736570879566e+00 0 0 0
1526 1 1.2176945946966045e+00 3.0705453145851909e+00 5.3653066566220584e+00 0 0 0
1504 1 4.0721354350507930e+00 4.2831674723535400e+00 5.5328932038811347e+00 0 0 0
1660 1 4.2352216131951224e+00 3.6449311177416921e+00 8.6049749894268395e+00 0 0 0
1531 1 3.9084985436489457e+00 1.5277042810748580e+00 8.8791219810001287e+00 0 0 0
4029 2 4.3783737123035191e+00 2.8936866405067780e+00 4.8766721685360261e+00 1 1 0
3510 2 4.9619884876201601e+00 4.2565223804364747e+00 8.5723857637119512e+00 0 0 0
1115 1 4.4110184818074085e+00 4.2977513312665883e+00 6.5826606038143325e+00 0 0 0
3634 2 4.0986652693202963e+00 3.1793754633786295e+00 7.8165398194560076e+00 0 0 0
2123 1 5.1452441282450705e+00 1.7743231248764577e+00 6.3811149484826695e+00 0 0 0
548 1 2.1683487243119970e+00 3.3632595117588835e+00 4.9176558910007593e+00 0 0 0
4220 2 5.0851981660882464e+00 2.4294829832969347e+00 7.0179671657162528e+00 0 0 -1
1646 1 4.2177846824707661e+00 2.5612834390648067e+00 6.5159149890637131e+00 0 0 0
3793 2 4.3586556173512685e+00 1.6776546214471184e+00 7.9607825596970834e+00 1 1 -1
1095 1 4.7033941503453693e+00 2.5126302513870296e+00 7.8503052456183262e+00 0 0 0
1529 1 4.7138116942164423e+00 4.1129012633337325e+00 7.6377860558722155e+00 0 0 0
1539 1 4.7965223836047155e+00 2.7923952026803418e+00 8.8614256638525770e+00 0 0 -1
2232 1 4.8917218076380493e+00 3.3512756520766045e+00 6.9978338785598995e+00 1 1 0
1904 1 4.9331626705645499e+00 2.2108184338632912e+00 5.4761657819893159e+00 1 1 0
1627 1 5.2594693114594468e+00 1.6767133206622062e+00 7.5342269329530378e+00 0 0 0
1206 1 5.1920576969338708e+00 7.4189115957952734e-01 6.6470726543382170e+00 1 1 -1
1618 1 5.2041628686270212e+00 3.4413527790997880e+00 8.2084822173017162e+00 0 0 0
2196 1 4.5559457684481766e+00 3.2271782992194127e+00 5.6503315731157828e+00 1 1 -1
1021 1 4.9828333710652117e+00 3.7799049584782276e+00 9.3433337778204510e+00 0 0 0
1913 1 1.9646962082313837e-01 6.8734123236287781e-01 5.0447739746615392e+00 1 1 0
1909 1 5.2444666287742114e+00 6.7770461656532244e-01 8.1405222965025104e+00 1 1 0
1688 1 5.1072712562960660e+00 4.2185691885506698e+00 5.7319413178831429e+00 0 0 0
3870 2 1.8319390091633443e+00 1.2862698273746803e-01 9.0641100890494837e+00 0 0 0
1638 1 -1.0196854459370130e-01 4.5210461646917492e+00 7.4857944417017208e+00 0 0 0
2053 1 5.3657150956048669e+00 2.8480348334271399e+00 6.2766998975438293e+00 0 0 0
970 1 2.1743951190463218e+00 4.5468143092214204e+00 4.9878746284592372e+00 0 0 0
70 1 4.7219869720518154e-01 3.0424148364228203e+00 9.4884223078494649e+00 0 0 -1
2340 1 5.1567022230634452e+00 8.5129869774874389e-01 9.1847077431026989e+00 1 1 0
4078 2 2.7896822157413719e+00 8.5532159542185726e-01 5.4991680668949785e+00 1 1 0
626 1 -1.8927896312573525e-01 2.6747724986118375e+00 7.2109636813649853e+00 0 0 0
813 1 3.1553789420902190e+00 8.3719050281105079e-01 9.4767132561766640e+00 1 1 -1
56 1 2.2912408563026121e-01 2.0158654390960811e+00 9.5169117249072173e+00 0 0 -1
613 1 5.4230960388928562e+00 1.3247689614513767e+00 5.3514434723877926e+00 0 0 0
974 1 4.2602979352802048e+00 5.3799062523659291e-01 8.6362300893386656e+00 0 0 -1
1722 1 3.1887940045341696e+00 5.8215486704632868e-01 7.3915972170703661e+00 1 1 0
3961 2 8.9629022809623327e-01 4.6088194005587182e+00 9.0108501730072845e+00 0 0 0
1155 1 4.7974834818596257e-01 4.7869915466101398e+00 6.6906557459063398e+00 0 0 0
601 1 -5.0257520619998497e-01 4.3605665664783597e+00 5.1807584336356101e+00 0 0 0
3738 2 3.8763411056625294e+00 1.3775995424458443e-01 7.1871812875409686e+00 0 0 -1
1612 1 5.1495073585543523e+00 2.8892312270235674e-02 7.3938118313673176e+00 0 0 0
1199 1 1.8830238509107673e+00 2.3302466920694784e+00 5.1157341895045487e+00 1 1 0
3364 1 4.7566873398543956e+00 6.1682672709432274e-01 5.7742154560158978e+00 1 1 0
987 1 1.8879186938534516e+00 1.9797583632074758e+00 9.0558171048696714e+00 0 0 -1
1050 1 2.5009054235472128e+00 3.1800771017109741e+00 9.4707931140027224e+00 0 0 -1
3707 2 3.3407983954937883e+00 2.4518738267393130e+00 9.1545419126900818e+00 0 0 -1
1676 1 2.8536449093058791e+00 2.6737079398181582e+00 5.2284805372548684e+00 0 0 0
3719 2 2.2566559160330030e-01 2.6083700120211710e+00 5.1525422032532289e+00 0 0 -1
1402 1 1.2286218919795941e+00 5.8767996721850324e-01 9.5663971616222021e+00 1 1 0
698 1 8.9302047930156503e-03 2.0287536805383142e+00 6.4293432394160321e+00 0 0 0
733 1 1.7215892317120622e+00 3.9825716975524985e+00 9.4031254314968500e+00 1 1 -1
1906 1 2.1434213029759914e+00 7.3284356858327571e-01 4.8913275753158461e+00 1 1 0
2108 1 3.6243971387731015e+00 3.4351794105479376e+00 5.0328200840896180e+00 0 0 0
4122 2 3.7372766251392946e+00 1.7613098461844301e+00 4.8333803817203611e+00 0 0 0
1057 1 1.4111117771757273e+00 4.8156813135944008e+00 6.1113402224045563e+00 0 0 0
1900 1 2.3418988046894484e+00 4.3868699306417673e-02 6.5923626901787733e+00 1 1 0
4219 2 -2.2997739827055996e-01 1.7189020174924661e+00 7.2705449315800799e+00 1 0 -1
121 1 -5.6589069104872070e-01 6.5750678438754067e+00 7.2039092190020804e-01 0 0 0
608 1 -5.4067902137624135e-01 6.1325665813814023e+00 2.7528813565139698e+00 0 0 1
638 1 -7.1465081221002391e-01 7.2685223301443340e+00 2.7024722789998616e+00 0 0 1
1712 1 -9.4521948216008544e-01 8.3264396241655341e+00 2.3775949566192600e+00 0 0 0
3668 2 -5.7379510840559389e-01 6.7797867897754127e+00 4.0683811593070915e+00 0 0 1
525 1 -8.4722572229558279e-01 8.1665532270787100e+00 3.4264156293590076e+00 0 0 0
3732 2 -4.3354449737086181e-01 6.7688051568483392e+00 1.8662671766740246e+00 -1 -1 0
328 1 -1.1596868746160882e-01 7.6766245967427222e+00 4.1171315255311960e+00 0 0 0
1036 1 1.0014213564473518e-02 5.8881920064702440e+00 1.8563716695888155e+00 0 0 0
1631 1 -1.3033529030921243e-01 5.8708267068313225e+00 3.7102515681732511e+00 0 0 1
696 1 -4.0407260479560003e-01 7.6322323807357453e+00 7.0759365574750566e-01 0 0 1
1113 1 -5.2919869836657241e-01 8.5210466569899790e+00 1.4765617893144292e+00 0 0 1
287 1 -3.6965595932942119e-01 8.6985702184059175e+00 4.2987927210051708e+00 0 0 -1
594 1 2.1025461881094665e-02 5.6873387992622551e+00 8.1495190215807678e-01 0 0 0
3465 2 -2.7367783908911203e-01 9.2376309381519128e+00 1.8060546878404005e+00 0 0 0
573 1 -7.8770001044154991e-03 6.8756253692095459e+00 3.4391991278831262e+00 0 0 0
68 1 6.8112182889679351e-02 7.8868705668783781e+00 3.0223004834844596e+00 0 0 0
532 1 -2.1651267737591673e-01 7.6362284049910185e+00 1.8675570021828669e+00 0 0 0
4283 2 4.0624791894698020e-01 6.1380222576278438e+00 2.8857575934850810e+00 2 1 -1
158 1 2.4281620556883987e-01 6.7719534724426005e+00 4.5200485282149874e+00 0 0 0
4257 2 6.1192171014219143e-02 8.3598812863813574e+00 8.6205368428325524e-01 1 0 0
54 1 1.6236849910142159e-01 5.3551367462036366e+00 2.6809685031398081e+00 0 0 -1
549 1 -1.0344053829168720e-01 8.8850761581352575e+00 3.3339063995151355e+00 0 0 0
4032 2 2.6921368434955750e-01 6.4841062526957502e+00 5.6492798600276006e-01 1 0 0
542 1 2.8587721525389564e-01 6.8410119436546628e+00 2.4401457820478964e+00 0 0 0
1032 1 1.3465276993635777e-01 8.6435348490535180e+00 2.3474510104217718e+00 0 0 0
85 1 -8.5658468544306698e-02 9.2839480584725180e+00 9.7542010580902017e-01 0 0 0
50 1 7.4048746996130399e-01 5.1889820034033400e+00 1.8736110540476920e+00 0 0 0
582 1 8.2808792211037985e-01 5.7725905550097902e+00 4.4400053441122367e+00 0 0 0
3879 2 5.8128247018476586e-01 6.3677140996118631e+00 3.8852747018196139e+00 0 0 0
1253 1 2.5170750551146182e-01 6.8126023158245870e+00 1.3649201359059724e+00 0 0 0
2834 1 6.6929607202824193e-01 7.7440105708889897e+00 8.3242741888471194e-01 1 0 0
1061 1 1.1370574531770670e+00 5.1377511180523987e+00 8.4292599188497419e-01 0 0 0
1163 1 9.5603787821508446e-01 6.0693590441752443e+00 1.2885170542569626e+00 0 0 1
1121 1 1.0062435173987798e+00 6.0609022418179057e+00 2.3183936367659372e+00 0 0 1
101 1 8.7984310785558972e-01 7.4219478819643836e+00 3.8381648171670188e+00 0 0 0
1303 1 8.0877017511582916e-01 5.4747114572842497e+00 3.4046850755048510e+00 0 0 0
3696 2 7.4386260322390874e-01 7.2979103082949734e+00 2.9915970292403755e+00 0 0 0
763 1 6.3308171557997972e-01 8.6934520155071198e+00 1.3970500434229298e+00 0 0 0
1395 1 1.1028272545286932e+00 6.4761690655434210e+00 3.2672041696620493e+00 0 0 1