ITEM: TIMESTEP
240000
ITEM: NUMBER OF ATOMS
4320
ITEM: BOX BOUNDS xy xz yz pp pp pp 
0 28.965 9.655
0 19.31 0
0 9.655 0
ITEM: ATOMS id type x y z ix iy iz msd_nonAffine dx dy dz dx2 dy2 dz2 
3870 2 9.91111 4.76718 0.783338 0 -1 0 128.287 -11.3221 0.200314 -0.240777 128.189 0.0401258 0.0579736 
701 1 7.21904 1.54288 2.8729 0 0 0 0.580013 -0.539053 -0.535556 0.0511313 0.290578 0.286821 0.00261441 
2399 1 4.75071 8.43252 1.38804 0 0 0 3.06701 1.2778 -1.19224 0.113124 1.63277 1.42144 0.0127971 
3119 1 7.33407 2.72718 7.85238 0 0 0 0.724044 -0.683686 -0.503235 -0.058066 0.467426 0.253246 0.00337166 
1 1 8.39027 4.72789 1.05757 0 0 0 5.40227 -2.23071 0.652693 0.0135948 4.97608 0.426008 0.000184817 
1737 1 7.2948 7.18177 4.81382 0 0 0 1.98384 -1.28626 0.366713 0.441464 1.65447 0.134478 0.19489 
3767 2 10.9154 7.27841 0.812656 0 0 2 2.50721 -0.793325 1.36892 0.062525 0.629365 1.87393 0.00390938 
2991 1 10.8534 7.61585 7.20741 0 0 -1 1.60251 -0.689356 -0.246062 -1.03284 0.475212 0.0605465 1.06675 
2092 1 12.7602 6.23583 3.02005 0 0 0 0.769733 -0.876289 -0.0245826 0.0352992 0.767883 0.000604306 0.00124604 
3379 1 11.7453 6.26148 1.79317 0 0 0 1.82711 -0.857401 -0.850448 -0.607214 0.735136 0.723261 0.368709 
1585 1 10.2713 5.28264 5.18348 0 0 0 3.37524 -1.62002 -0.584865 0.639299 2.62447 0.342067 0.408704 
3529 2 11.0494 3.45892 5.08015 -1 1 -1 79.9957 8.91694 -0.691481 -0.0753467 79.5119 0.478146 0.00567712 
664 1 1.5764 0.114324 8.40278 0 0 0 0.080799 -0.0459634 0.210785 0.185084 0.00211263 0.0444302 0.0342561 
529 1 10.375 2.21583 2.81752 -1 0 1 0.482123 -0.352876 -0.5969 -0.0362185 0.124522 0.35629 0.00131178 
1944 1 4.64854 9.16124 2.04005 0 0 0 2.80218 1.57704 -0.495701 -0.263444 2.48706 0.24572 0.0694027 
3203 1 0.926377 1.39413 0.391588 1 0 0 0.247657 -0.402379 0.274205 0.102762 0.161909 0.0751882 0.0105601 
1264 1 1.66509 1.52694 1.23691 0 1 0 85.895 9.26452 0.157637 0.196721 85.8314 0.0248495 0.038699 
756 1 7.69477 7.70547 5.66709 0 0 1 2.97142 -0.161907 -1.70443 0.200336 0.026214 2.90508 0.0401343 
3758 2 1.79067 0.757232 1.73904 0 0 1 0.0824273 -0.146692 0.0821964 0.232707 0.0215187 0.00675625 0.0541524 
663 1 2.41869 0.802673 1.15351 0 0 0 0.0619021 -0.158931 0.0137217 0.190931 0.0252592 0.000188284 0.0364546 
963 1 2.07681 1.3777 0.27833 0 1 1 83.9483 9.15995 0.119312 0.171135 83.9048 0.0142354 0.0292871 
4222 2 2.07825 0.503497 0.457024 1 0 -1 0.0575936 -0.0205266 0.120499 0.206524 0.00042134 0.0145201 0.0426522 
899 1 8.30077 7.9607 3.41012 0 0 0 4.11855 -0.878377 -1.08522 -1.47285 0.771546 1.1777 2.1693 
1252 1 2.89605 0.390118 0.244963 0 1 1 94.4551 9.7169 -0.0722363 0.177947 94.4182 0.00521808 0.0316651 
2154 1 3.34276 0.816439 1.70852 0 0 1 0.127496 -0.152989 -0.111811 0.302635 0.0234057 0.0125018 0.0915882 
4078 2 3.71225 1.29227 0.15138 0 1 0 90.5006 9.50983 0.251889 -0.0156691 90.4369 0.0634482 0.00024552 
1783 1 4.91672 0.396098 0.82729 0 1 0 95.892 9.78976 -0.207224 -0.0987654 95.8393 0.0429416 0.00975461 
1177 1 4.32771 1.44106 0.958368 0 0 1 0.0787636 -0.260388 0.0483776 0.0928514 0.0678018 0.00234039 0.00862139 
2805 1 3.78126 0.512605 0.745675 1 1 1 91.6952 9.57423 0.0823592 0.15018 91.6659 0.00678304 0.0225539 
4061 2 6.64857 4.67922 5.81408 0 1 1 89.6747 9.18894 -2.13007 -0.837179 84.4366 4.53718 0.700868 
4319 2 5.63042 2.85225 6.95552 1 0 0 0.576388 -0.736443 -0.174721 0.0592716 0.542348 0.0305274 0.00351312 
2237 1 9.71478 7.46767 2.84727 0 -1 0 98.9733 -9.88798 -0.966164 0.517398 97.7722 0.933474 0.267701 
3415 1 8.29082 6.86965 5.77423 0 1 0 64.6255 8.02027 -0.347713 0.423996 64.3248 0.120905 0.179773 
1861 1 8.53931 8.98261 6.61873 0 0 0 1.21086 0.779377 -0.609452 0.481667 0.607429 0.371431 0.232003 
1707 1 7.6546 5.70538 7.0921 0 0 -1 4.4499 -0.406151 -1.67252 -1.21968 0.164959 2.79731 1.48763 
3889 2 6.47181 8.12512 1.75303 0 -1 1 103.513 -10.0691 -1.3771 0.479399 101.387 1.89642 0.229824 
4118 2 5.69085 9.28712 1.45939 1 1 1 95.4151 9.74926 -0.325227 -0.511187 95.048 0.105772 0.261312 
2059 1 7.7161 1.91285 3.80435 0 0 0 0.458845 -0.487547 -0.453997 -0.122595 0.237702 0.206113 0.0150296 
2730 1 8.82789 3.17688 8.8589 0 0 0 0.840076 -0.767707 -0.348907 -0.359118 0.589374 0.121736 0.128966 
3611 2 6.67735 2.01813 6.32995 0 0 -1 0.564235 -0.617343 -0.408867 -0.126292 0.381113 0.167173 0.0159496 
2935 1 10.3776 1.58039 6.59342 0 1 -1 86.5058 9.28584 -0.517906 -0.103435 86.2269 0.268227 0.0106987 
128 1 8.88334 4.20742 8.77551 -1 0 -1 1.6982 -1.23769 -0.361408 -0.18898 1.53187 0.130616 0.0357135 
245 1 5.50589 9.39653 4.87582 0 0 0 1.55814 -0.796238 0.0345856 -0.960704 0.633995 0.00119616 0.922952 
153 1 3.44225 6.50921 8.00566 0 0 0 2.40417 -1.49726 -0.183201 -0.358912 2.24179 0.0335625 0.128818 
2721 1 12.3624 7.85105 2.38081 0 0 0 0.112089 -0.248916 0.116904 0.190953 0.0619589 0.0136665 0.0364632 
2161 1 11.0895 6.25242 8.03853 0 0 0 0.93136 -0.356519 -0.573261 0.689657 0.127106 0.328628 0.475626 
3793 2 10.3822 3.42308 6.71872 0 1 -1 77.3573 8.77692 -0.564195 -0.068311 77.0343 0.318316 0.0046664 
149 1 9.5265 0.969428 1.91815 -1 0 0 0.0488668 -0.120965 -0.140649 -0.120217 0.0146325 0.0197822 0.0144521 
671 1 9.92722 0.799952 7.4003 -1 0 0 0.417892 -0.0525028 -0.644283 0.00587687 0.00275655 0.415101 3.45376e-05 
3626 2 1.56938 2.05204 0.136246 0 0 0 0.505531 -0.672185 0.229836 0.0295633 0.451833 0.0528244 0.00087399 
1535 1 10.0174 9.27196 0.95305 0 0 1 0.95015 -0.344797 -0.87989 -0.238868 0.118885 0.774207 0.0570581 
3986 2 10.6338 2.31126 7.24206 0 0 -1 0.907858 -0.404215 -0.797908 -0.328347 0.16339 0.636657 0.107812 
1055 1 3.25388 1.53922 0.919944 0 0 0 0.121314 -0.235655 -0.127461 0.222564 0.0555333 0.0162464 0.0495346 
3784 2 2.44029 1.75793 1.17938 0 0 -1 0.20266 -0.428114 0.0156904 -0.138318 0.183282 0.00024619 0.0191319 
629 1 2.17863 2.46636 0.647547 0 0 0 0.775279 -0.861769 0.175593 0.0424326 0.742646 0.030833 0.00180053 
1563 1 3.12159 2.57707 1.28607 0 0 0 0.622345 -0.785613 -0.0365178 0.0618377 0.617188 0.00133355 0.00382391 
576 1 3.98574 3.08108 0.562516 0 0 0 0.749063 -0.855306 -0.0704302 0.112046 0.731548 0.00496041 0.0125542 
1632 1 3.86226 1.74442 1.85347 0 0 0 0.189915 -0.301918 -0.162019 0.269277 0.0911547 0.0262501 0.0725103 
3737 2 3.9376 2.20335 1.0087 1 1 0 81.8657 9.04479 -0.0906012 0.222137 81.8082 0.00820858 0.0493448 
3175 1 4.84147 2.31723 0.811055 1 0 1 0.414448 -0.634179 -0.0176988 0.10932 0.402183 0.000313248 0.0119509 
1395 1 4.30104 2.7604 1.59649 0 1 1 80.2541 8.95658 -0.129856 0.130004 80.2203 0.0168626 0.0169009 
3814 2 4.67406 2.84616 0.0114048 -1 0 2 0.644178 -0.799354 -0.0657873 -0.0297135 0.638967 0.00432797 0.00088289 
1104 1 4.01408 2.08083 0.19478 0 0 0 0.315355 -0.514689 0.112734 0.194271 0.264905 0.0127089 0.0377412 
1604 1 8.75535 1.9471 3.42174 0 0 0 0.243509 -0.340109 -0.269591 0.234852 0.115674 0.0726792 0.0551554 
4201 2 8.9155 7.42211 1.75633 0 -1 0 97.3213 -9.78152 -1.15857 -0.548469 95.6782 1.34227 0.300818 
2029 1 6.45561 1.92002 5.48793 0 0 0 0.376088 -0.523512 -0.287555 -0.139049 0.274065 0.0826879 0.0193345 
4209 2 2.88285 5.65616 5.58738 1 0 0 3.75902 -1.91988 0.150032 -0.224872 3.68594 0.0225095 0.0505673 
723 1 6.7255 0.214272 5.8952 0 0 0 0.139209 0.110915 -0.356222 0.00367209 0.0123022 0.126894 1.34842e-05 
2275 1 9.85117 8.50736 0.186681 0 0 1 4.577 0.979946 -1.72552 -0.799563 0.960295 2.97741 0.639301 
1793 1 9.12367 6.18604 5.32035 0 0 0 3.77078 -0.922969 -1.13827 -1.27406 0.851871 1.29567 1.62324 
3961 2 7.98311 1.74256 6.37205 0 0 0 0.392683 -0.406788 -0.476148 0.0221252 0.165477 0.226717 0.000489523 
3716 2 7.75331 1.74754 1.76681 0 0 0 0.15542 -0.260287 -0.243393 -0.168614 0.0677492 0.0592401 0.0284308 
146 1 3.11161 5.78422 9.64313 0 0 -1 2.2989 -1.37105 -0.269127 -0.588804 1.87978 0.0724295 0.34669 
2233 1 11.2051 4.83809 2.3173 0 0 1 2.9367 -1.51208 -0.439734 -0.675971 2.2864 0.193366 0.456936 
3938 2 8.87377 4.52026 5.10364 0 0 0 11.6102 -2.03597 -1.24482 2.43218 4.14516 1.54958 5.91548 
3341 1 10.8342 3.38284 4.25262 0 0 0 1.3922 -1.01326 -0.604362 -0.0161386 1.02669 0.365253 0.000260454 
4246 2 8.71039 7.35549 7.81506 0 0 -1 17.0167 0.760348 -4.05316 -0.10237 0.578129 16.4281 0.0104797 
1722 1 3.41255 0.165087 2.61341 0 0 1 0.0576815 0.166347 -0.00750449 0.173072 0.0276713 5.63174e-05 0.0299539 
650 1 11.8225 5.19235 4.36049 0 0 0 1.61923 -1.09992 -0.518145 -0.37541 1.20982 0.268474 0.140932 
1243 1 6.02182 9.41976 7.32665 0 0 0 1.85929 0.840192 -0.946924 0.506663 0.705923 0.896665 0.256707 
2666 1 10.1821 2.41963 1.71552 0 0 0 0.31543 -0.426406 -0.347481 -0.113423 0.181822 0.120743 0.0128647 
810 1 3.01588 3.44773 0.653324 0 1 1 76.7032 8.75629 0.141193 0.103131 76.6726 0.0199355 0.0106361 
307 1 5.46616 9.6209 3.05429 0 0 0 0.926714 0.103526 0.75856 0.583596 0.0107176 0.575413 0.340584 
981 1 4.12783 4.07629 0.789606 0 1 0 86.3686 9.27773 -0.178204 0.51044 86.0763 0.0317565 0.260549 
3546 2 3.14138 4.32115 0.324459 0 0 1 1.96025 -1.16479 0.18025 -0.755667 1.35673 0.03249 0.571033 
2081 1 3.60819 3.50054 1.57045 0 0 0 1.11306 -1.02514 -0.169235 0.183057 1.05091 0.0286406 0.0335097 
2050 1 2.41919 3.49022 1.56621 0 0 0 1.0552 -1.02346 0.037067 0.0797749 1.04746 0.00137396 0.00636403 
1503 1 5.87881 7.97631 8.7499 0 0 -1 1.2016 -0.324984 -0.576695 -0.87373 0.105615 0.332577 0.763404 
639 1 4.93574 3.44211 1.02291 0 0 0 0.919239 -0.948804 -0.00142141 0.13787 0.900229 2.02041e-06 0.019008 
1153 1 5.32957 4.35289 1.44283 0 0 0 2.26794 -1.4325 -0.286411 0.365882 2.05204 0.0820313 0.13387 
1946 1 4.9204 4.66381 0.411283 0 1 0 75.6265 8.68683 0.338138 -0.226261 75.4609 0.114337 0.0511941 
45 1 6.18148 3.56245 6.97636 0 0 -1 1.2794 -1.09874 -0.268614 -0.0024258 1.20724 0.0721537 5.8845e-06 
3844 2 7.60905 4.36014 3.11501 0 0 0 0.977786 -0.945121 -0.213403 0.197462 0.893254 0.045541 0.0389914 
2414 1 5.91187 1.46732 1.67107 0 1 1 89.2432 9.44458 -0.201182 -0.0500814 89.2002 0.0404741 0.00250815 
140 1 5.48212 3.7953 4.18036 0 0 1 1.53997 -1.15474 -0.452995 0.0365484 1.33343 0.205204 0.00133579 
1216 1 8.50417 8.62822 2.68658 0 0 0 1.46147 0.0277856 -0.88534 -0.822722 0.000772039 0.783827 0.676871 
2036 1 7.98682 3.77147 8.96106 0 0 -1 1.43321 -0.873219 -0.67516 -0.463523 0.762512 0.455841 0.214854 
1691 1 6.62018 0.997729 1.0441 0 0 1 0.132083 -0.093613 -0.351118 -0.00602576 0.00876338 0.123284 3.63098e-05 
3966 2 7.47941 6.16813 0.430115 0 -1 0 139.243 -11.7459 0.613676 -0.949414 137.965 0.376598 0.901387 
2198 1 9.2788 5.14179 8.61064 0 0 0 2.16513 -1.37958 -0.507719 -0.0642267 1.90323 0.257778 0.00412507 
2630 1 9.12338 6.5695 3.13216 0 0 0 6.51731 -2.53178 0.250114 -0.211749 6.40992 0.062557 0.0448377 
2579 1 10.8304 5.75378 4.10226 0 0 0 1.20093 -0.579059 -0.907356 -0.205741 0.335309 0.823294 0.0423293 
749 1 10.5134 7.09611 8.01511 0 0 0 0.387002 -0.245956 0.181869 0.541693 0.0604942 0.0330762 0.293431 
116 1 10.4734 4.09086 5.03269 -1 0 -1 0.717363 -0.827186 -0.00464187 0.181947 0.684237 2.1547e-05 0.0331046 
808 1 11.3724 7.60617 8.49067 0 0 0 0.644942 0.251796 -0.345435 -0.679864 0.0634011 0.119326 0.462215 
1743 1 8.57194 2.28554 1.71222 0 0 1 0.489096 -0.407723 -0.340099 -0.455182 0.166238 0.115667 0.207191 
3305 1 10.7368 8.24077 5.16383 0 0 0 1.16404 -0.814692 -0.678956 -0.198334 0.663723 0.460981 0.0393363 
2062 1 9.77033 1.06644 4.4837 0 0 0 1.08324 -0.252789 -0.50679 -0.873213 0.0639022 0.256836 0.762501 
1089 1 2.46454 0.124816 4.32406 0 0 0 0.100526 0.303303 0.0897393 0.0219199 0.0919928 0.00805314 0.000480482 
655 1 3.749 5.83499 1.11691 0 0 0 0.279862 -0.17626 -0.297498 -0.400362 0.0310675 0.0885049 0.16029 
527 1 1.0858 2.10495 1.89621 0 0 0 0.290313 -0.517814 0.0692538 0.131854 0.268132 0.00479609 0.0173854 
2653 1 4.47391 4.95851 1.34202 0 0 1 0.521775 -0.67788 0.0752512 0.237889 0.459521 0.00566275 0.0565911 
537 1 3.58273 4.99136 0.525322 0 0 0 0.489524 -0.585944 0.0301427 -0.381162 0.343331 0.000908583 0.145285 
80 1 4.78553 5.77446 0.741243 0 0 -1 0.49289 -0.681629 -0.140849 -0.0918371 0.464618 0.0198384 0.00843406 
4073 2 4.4766 4.69541 2.17365 0 0 0 4.45454 -1.17887 -1.59243 0.727312 1.38973 2.53583 0.528983 
3679 2 4.62766 5.80789 1.76254 0 1 2 67.9903 8.12587 0.62515 1.25287 66.0298 0.390813 1.56967 
1626 1 6.30817 7.24041 0.0485414 0 0 0 5.00071 -1.93407 1.122 -0.034618 3.74062 1.25889 0.0011984 
2357 1 5.90008 5.24962 0.586007 0 0 0 0.905024 -0.87687 0.0995208 0.355272 0.768901 0.00990439 0.126218 
2072 1 6.97444 6.2683 2.30129 0 0 0 2.21969 -1.3882 -0.313493 0.440807 1.9271 0.0982781 0.194311 
2497 1 5.27226 5.43809 9.45767 0 0 -1 2.82042 -1.20375 -0.471778 -1.07184 1.44901 0.222575 1.14883 
1215 1 5.45464 5.4384 1.49578 0 0 1 1.21314 -1.00891 0.436719 0.0672011 1.0179 0.190723 0.00451599 
2665 1 6.65652 6.24187 0.533836 0 0 1 3.57922 -1.86024 -0.297748 -0.173383 3.46051 0.0886537 0.0300616 
3455 1 8.13703 5.41089 8.92025 0 0 0 2.35026 -1.37574 -0.675919 -0.0271368 1.89266 0.456867 0.000736406 
4019 2 6.46719 7.89065 6.81143 0 0 1 14.0542 -3.72134 0.374411 -0.256233 13.8484 0.140183 0.0656553 
2112 1 6.45318 2.06361 2.46787 0 0 0 0.14116 -0.296059 -0.199413 -0.117235 0.0876508 0.0397655 0.0137439 
3338 1 8.43248 6.84832 4.69018 0 0 0 2.01501 -1.14732 0.630088 -0.549229 1.31635 0.397011 0.301652 
3548 2 7.3373 1.5207 5.23558 0 1 0 88.4842 9.38321 -0.656464 -0.0927758 88.0446 0.430945 0.00860734 
3255 1 13.2994 8.41874 8.69381 0 0 0 1.50704 -1.09176 0.222553 -0.515333 1.19194 0.04953 0.265568 
2555 1 8.55912 4.37952 2.92087 0 0 0 1.10433 -0.936752 -0.458095 0.130278 0.877505 0.209851 0.0169722 
3541 2 11.7538 9.54794 6.08471 0 0 -2 9.67808 3.05751 0.567242 -0.0891344 9.34838 0.321763 0.00794493 
1724 1 8.08242 5.48364 0.323981 0 0 1 4.15146 -1.86869 -0.4615 -0.668179 3.49202 0.212982 0.446463 
1991 1 4.69363 0.345681 9.0078 0 0 -1 0.0410782 -0.017434 0.109217 0.169841 0.000303943 0.0119284 0.0288458 
4013 2 8.9583 5.45376 9.32507 0 0 -1 1.67361 -1.2523 0.323139 -0.0308229 1.56824 0.104419 0.00095005 
2111 1 8.9376 5.42706 3.26045 0 0 0 3.34347 -1.62053 -0.344335 0.773816 2.62611 0.118567 0.598791 
3775 2 8.14866 1.46116 7.44653 0 0 1 0.314384 -0.327184 -0.452502 -0.050752 0.10705 0.204758 0.00257576 
3738 2 9.87726 2.67306 5.71466 0 0 -2 0.79267 -0.796217 -0.394217 -0.0574589 0.633962 0.155407 0.00330153 
1989 1 7.25491 0.136979 6.80358 0 0 0 0.271123 0.31869 -0.397371 -0.107964 0.101563 0.157904 0.0116562 
2000 1 8.56436 9.59158 3.08492 0 0 0 0.279732 0.51712 -0.0309491 0.106585 0.267414 0.000957845 0.0113603 
1191 1 4.33916 7.39728 9.36907 0 0 -1 3.04641 -0.916657 -0.606194 -1.35598 0.84026 0.367471 1.83868 
4287 2 3.67597 4.85566 1.42255 0 0 0 6.6843 0.295957 -2.55175 0.292039 0.0875905 6.51143 0.0852866 
872 1 12.7493 8.30371 0.297845 0 0 0 0.539647 0.694937 -0.0812974 -0.22383 0.482937 0.00660926 0.0501001 
1963 1 4.91043 8.84793 8.80506 0 0 0 2.73595 -0.230711 1.04257 -1.26324 0.0532274 1.08695 1.59577 
3539 2 4.81467 6.64462 0.454736 0 0 1 0.553063 -0.736819 -0.00581333 -0.100636 0.542902 3.37948e-05 0.0101276 
1101 1 4.4467 6.57295 1.28036 0 0 1 4.01117 -1.91653 -0.218978 0.538626 3.6731 0.0479514 0.290118 
1364 1 4.80127 6.47432 9.23569 0 0 -1 2.38031 -0.864549 -1.04187 -0.739847 0.747445 1.08549 0.547373 
1222 1 3.81342 6.63692 0.384624 0 0 0 2.52181 -1.31023 -0.393739 -0.806267 1.71671 0.155031 0.650066 
1980 1 5.27568 7.32893 9.60545 0 0 -1 3.33197 -0.962714 -0.496776 -1.46914 0.926818 0.246787 2.15836 
312 1 10.7857 3.63619 1.2499 -1 1 1 72.8553 8.51885 -0.527862 -0.0770561 72.5707 0.278639 0.00593764 
2416 1 7.23983 6.68406 1.3304 0 0 1 1.489 0.336347 -1.08929 0.435118 0.113129 1.18654 0.189327 
551 1 5.61968 6.36218 0.333648 0 0 0 4.30673 -1.9325 -0.422048 -0.627737 3.73455 0.178125 0.394053 
4230 2 7.9282 7.40849 0.96823 1 0 0 1.84865 0.466519 0.884631 0.921109 0.21764 0.782572 0.848441 
1784 1 7.96934 8.29841 9.18071 0 0 -1 1.45327 -0.365214 1.01389 -0.540294 0.133381 1.02797 0.291918 
2536 1 7.07098 1.21961 6.32152 0 0 -1 0.270487 -0.245808 -0.453155 0.0686729 0.0604214 0.20535 0.00471596 
2954 1 9.44207 7.54248 9.615 0 0 -1 6.68265 -2.20545 -0.137132 -1.34158 4.86401 0.0188051 1.79984 
1230 1 5.69488 5.0415 3.21498 0 0 1 3.43312 -1.78123 -0.344104 -0.376746 3.17277 0.118408 0.141937 
3653 2 12.181 7.90438 5.92527 -1 0 0 2.79456 -0.573747 -0.69188 -1.40949 0.329186 0.478698 1.98667 
4032 2 8.52645 9.4288 5.7687 1 0 -1 2.04627 1.12263 -0.845857 0.265522 1.2603 0.715474 0.0705019 
2881 1 11.6776 7.7058 0.735356 0 0 1 4.69863 -2.15482 -0.128884 0.196865 4.64326 0.0166111 0.038756 
2830 1 12.6116 6.75298 7.92373 0 0 -1 3.17187 -1.77093 -0.0437092 -0.183746 3.13619 0.00191049 0.0337626 
2791 1 7.36988 2.02036 6.96036 0 1 -1 81.1778 9.00351 -0.291195 -0.172695 81.0632 0.0847945 0.0298234 
481 1 11.4181 4.24061 7.55734 -1 1 0 67.6096 8.19851 -0.627716 -0.00941509 67.2155 0.394027 8.8644e-05 
203 1 4.54101 8.51158 0.16987 0 0 1 1.92686 1.32483 -0.215348 -0.354001 1.75517 0.0463747 0.125317 
3103 1 5.56619 2.30649 8.43728 0 0 -1 0.806024 -0.860165 -0.229741 0.115577 0.739885 0.0527811 0.0133582 
4221 2 7.42807 3.16992 6.05584 0 1 0 77.5343 8.79383 -0.437663 0.106691 77.3314 0.191549 0.011383 
2263 1 6.77966 8.19245 0.46794 0 0 0 7.38723 2.65715 -0.554265 -0.139957 7.06043 0.30721 0.0195879 
161 1 1.10865 2.10309 6.89572 0 0 0 0.448433 -0.596981 0.302499 0.023251 0.356387 0.0915054 0.00054061 
3064 1 4.38327 7.45439 0.779398 1 0 0 2.10704 -0.597642 -1.26073 0.400523 0.357176 1.58945 0.160419 
204 1 5.7301 7.6031 2.03828 0 0 0 2.86879 0.665094 -1.40032 0.68231 0.44235 1.9609 0.465546 
1037 1 5.51135 0.864619 7.10425 0 0 -1 0.0667639 -0.110208 -0.225823 0.0601832 0.0121459 0.050996 0.00362202 
3629 2 5.05677 8.07628 9.20271 0 0 -1 4.20425 -1.77798 -0.193487 -1.0028 3.16121 0.0374374 1.00561 
1613 1 5.6937 8.37329 0.121492 0 0 1 1.45766 -0.71972 -0.441293 -0.86309 0.517997 0.194739 0.744925 
2200 1 8.35171 5.41065 7.84303 0 0 0 1.05381 -0.984005 0.198544 0.21476 0.968266 0.0394196 0.0461216 
738 1 9.2926 8.21772 2.16468 0 0 0 1.52995 0.317774 -1.09228 -0.485689 0.10098 1.19307 0.235894 
2009 1 13.225 8.71968 1.14674 0 0 0 0.613645 -0.446341 0.36795 -0.52824 0.19922 0.135387 0.279038 
1908 1 7.81847 8.1369 0.642956 0 0 0 0.584146 -0.551087 -0.259901 -0.461411 0.303697 0.0675487 0.2129 
2908 1 6.20574 1.20501 2.99197 0 1 1 98.6386 9.9191 -0.282689 -0.412523 98.3885 0.0799131 0.170175 
2076 1 11.8076 6.56035 8.6851 0 0 -1 2.89545 -1.65492 -0.00788511 -0.395768 2.73876 6.2175e-05 0.156632 
523 1 9.9527 3.92295 3.84999 -1 0 0 1.91262 -1.29068 0.380144 0.319774 1.66585 0.144509 0.102255 
3927 2 5.66568 2.2225 0.246375 -1 1 1 81.74 9.03964 -0.141787 0.0687691 81.7152 0.0201035 0.00472919 
4167 2 6.68344 2.5595 4.7768 0 1 0 85.6965 9.25387 -0.246413 0.0401375 85.6341 0.0607191 0.00161102 
2173 1 11.6173 8.46716 1.85931 0 0 0 5.43982 -1.66418 1.57218 0.445598 2.76951 2.47175 0.198557 
4129 2 0.631959 0.523776 4.76927 0 0 0 0.0735483 -0.185643 0.181978 0.0772571 0.0344635 0.0331161 0.00596866 
1997 1 5.46969 0.643568 9.55667 0 0 -1 0.0193889 0.00422964 -0.137929 0.0186189 1.78899e-05 0.0190243 0.000346662 
242 1 9.39597 8.4735 8.90821 -1 0 0 2.36068 0.077043 1.46174 -0.466972 0.00593562 2.13668 0.218063 
2041 1 9.90778 7.80104 5.52424 0 0 0 0.48815 -0.530832 -0.433406 -0.136114 0.281783 0.187841 0.0185269 
1656 1 11.5815 9.5475 7.72479 0 0 0 1.81379 -1.13355 0.711955 0.148236 1.28494 0.50688 0.0219738 
2326 1 7.049 9.48742 7.06315 0 0 -1 1.77153 -1.20626 0.554224 0.096466 1.45506 0.307164 0.00930569 
3451 1 10.3234 3.20651 3.15822 0 1 0 67.5791 8.19048 0.121248 -0.693154 67.084 0.014701 0.480463 
1171 1 10.7876 7.2478 2.41874 0 0 0 0.315549 -0.327053 0.265391 0.371689 0.106964 0.0704326 0.138153 
2 1 10.7589 6.53755 3.2052 -1 0 0 2.17828 -0.53897 -1.03219 -0.906847 0.290488 1.06541 0.822372 
2931 1 10.6271 4.17092 2.95808 0 1 0 72.5926 8.50892 -0.27748 -0.337408 72.4018 0.0769954 0.113844 
3329 1 12.7299 9.40898 6.18792 0 0 0 0.41944 0.307288 -0.414984 0.390901 0.0944257 0.172211 0.152803 
1259 1 11.0268 9.36149 2.0187 0 0 0 0.249377 -0.360135 -0.00352935 -0.34593 0.129697 1.24563e-05 0.119668 
74 1 11.9546 5.57215 8.56393 -1 0 -1 2.586 -1.59022 -0.219696 0.0945928 2.52879 0.0482662 0.00894779 
1955 1 10.5474 9.36523 7.38125 0 0 0 1.00929 0.859125 -0.202803 -0.479656 0.738096 0.0411289 0.23007 
1875 1 0.909555 1.00727 1.8063 0 1 1 89.2234 9.43728 0.384291 0.116357 89.0622 0.147679 0.013539 
3905 2 0.955061 1.43099 2.60616 1 1 0 84.8856 9.20575 0.370928 0.0462936 84.7459 0.137588 0.0021431 
2405 1 1.83489 1.52694 2.24151 0 1 0 87.1458 9.33245 0.134505 0.181618 87.0947 0.0180916 0.0329852 
27 1 1.38909 0.651357 2.6809 0 1 0 88.8463 9.42137 0.229702 0.177067 88.7622 0.052763 0.0313528 
2689 1 1.73988 1.32769 3.28516 1 0 0 0.151749 -0.342745 0.16565 0.0826723 0.117474 0.0274398 0.00683471 
3459 2 2.56265 1.3387 2.78198 0 0 0 0.0969937 -0.230195 0.0913006 0.188861 0.0529896 0.0083358 0.0356683 
1032 1 2.50803 0.649865 2.28708 0 0 0 0.0907792 -0.0708687 0.0966572 0.276431 0.00502237 0.00934262 0.0764142 
820 1 3.44954 1.28789 2.71133 0 1 0 88.6666 9.41112 0.0504867 0.308156 88.5691 0.0025489 0.0949603 
2197 1 11.6227 8.64963 0.0662825 0 0 2 0.918739 0.820975 -0.0819011 0.487885 0.674 0.00670778 0.238032 
1863 1 4.44623 0.848587 1.79609 0 1 0 93.6099 9.67201 -0.242706 -0.0565868 93.5478 0.0589064 0.00320207 
1231 1 4.52235 0.221034 2.69562 0 0 1 0.0716918 0.199622 -0.150442 0.0959695 0.0398488 0.0226328 0.00921014 
3639 2 4.33742 1.17296 2.89303 0 0 1 0.0372765 -0.103341 -0.0629201 0.15046 0.0106793 0.00395893 0.0226382 
2256 1 6.77353 6.45732 6.73463 0 0 0 3.30604 -1.31664 -1.05645 0.675577 1.73355 1.11608 0.456405 
720 1 6.57093 4.55104 6.89443 0 0 0 2.31148 -1.472 -0.351826 -0.144649 2.16678 0.123782 0.0209233 
279 1 5.7148 3.11319 7.7842 0 0 0 0.694035 -0.790794 -0.254667 0.0618449 0.625355 0.0648551 0.00382479 
3760 2 7.49981 5.95207 2.87369 0 0 0 10.6778 -2.50009 -0.934409 -1.88527 6.25043 0.873121 3.55423 
1188 1 5.97893 0.559391 8.68053 0 0 0 0.00463528 -0.0399241 -0.0264717 0.0483797 0.00159393 0.000700753 0.0023406 
2911 1 5.86117 2.3284 1.06108 0 1 1 83.5596 9.13945 -0.168633 -0.0396057 83.5296 0.028437 0.00156861 
3606 2 7.37985 4.12323 6.90845 0 0 -1 3.49952 -0.79645 -1.6684 -0.285719 0.634333 2.78355 0.0816356 
1590 1 6.26452 7.23101 7.30077 0 0 0 4.66434 -2.03514 -0.72285 -0.00374253 4.14181 0.522512 1.40065e-05 
2680 1 7.423 1.09591 7.38681 0 0 0 0.0783355 0.00369324 -0.247999 -0.129686 1.36401e-05 0.0615033 0.0168185 
1587 1 8.78471 6.29769 0.119265 0 0 1 3.19338 -1.37961 -0.796526 -0.809693 1.90332 0.634454 0.655602 
3517 2 11.375 7.16757 3.37 -1 -1 0 91.791 -9.28359 -0.163626 -2.36204 86.185 0.0267733 5.57924 
1695 1 10.7703 8.12311 0.386341 0 0 1 2.57311 -0.494445 -0.369977 -1.48046 0.244476 0.136883 2.19175 
2519 1 9.47956 7.06643 4.899 0 -1 0 133.019 -11.5323 0.133971 -0.0863887 132.994 0.0179483 0.007463 
2592 1 11.1851 5.64091 1.01818 0 0 0 5.99948 -2.44569 0.00351661 -0.134432 5.98139 1.23666e-05 0.0180719 
234 1 10.6687 5.72077 1.99507 -1 0 1 1.56289 -1.24165 -0.0752857 0.124572 1.5417 0.00566793 0.0155181 
3803 2 8.09399 0.359419 7.32827 0 2 0 382.257 19.5443 -0.515268 -0.116271 381.978 0.265501 0.0135189 
2539 1 12.4676 6.97306 1.85639 0 0 0 10.2891 -3.0602 0.841338 -0.465248 9.36481 0.707849 0.216456 
3237 1 13.5977 9.28534 4.83876 0 0 -1 0.800811 -0.444416 -0.636006 -0.445871 0.197506 0.404504 0.198801 
1363 1 8.26949 0.115198 1.53444 0 1 0 92.9008 9.5962 -0.88552 0.172144 92.087 0.784146 0.0296336 
427 1 2.09737 2.43183 1.79092 0 1 0 80.4608 8.96819 0.071022 0.165147 80.4285 0.00504413 0.0272736 
699 1 1.23506 2.20945 2.90208 0 0 1 0.503244 -0.631685 0.269 0.178487 0.399026 0.0723609 0.0318576 
1026 1 1.73536 3.10904 2.44945 0 0 0 0.74694 -0.824477 0.192879 0.173133 0.679763 0.0372024 0.029975 
354 1 2.85745 1.86637 2.06232 0 1 0 84.7955 9.20816 -0.0713331 -0.0171426 84.7902 0.00508841 0.000293869 
4141 2 3.57244 2.544 2.11983 0 2 0 349.5 18.6948 -0.0318179 0.0408443 349.497 0.00101238 0.00166825 
2060 1 2.30029 2.23955 2.94811 0 0 0 0.304438 -0.549142 -0.0100873 0.0527155 0.301557 0.000101753 0.00277892 
753 1 2.92024 3.10356 2.34792 0 0 1 0.647113 -0.799534 0.0874411 -0.0145757 0.639255 0.00764595 0.000212451 
2422 1 3.43389 2.36359 3.05498 0 1 1 81.634 9.0341 -0.119701 0.0680855 81.615 0.0143283 0.00463563 
1250 1 4.96765 1.97721 1.81895 0 1 0 86.187 9.28236 -0.113048 0.109812 86.1622 0.0127799 0.0120586 
706 1 4.34899 1.97136 2.69046 0 0 0 0.185087 -0.366613 -0.179632 0.1357 0.134405 0.0322676 0.0184144 
164 1 10.071 8.86202 1.90972 0 0 1 6.6139 1.78217 -1.81374 0.384886 3.17612 3.28964 0.148137 
3921 2 4.74735 2.6759 2.37145 0 1 -1 84.7171 9.19772 -0.339946 0.0590898 84.5981 0.115564 0.00349161 
3124 1 5.35626 2.94812 1.80205 0 0 1 0.465511 -0.661843 -0.165564 -0.0079182 0.438037 0.0274114 6.26979e-05 
3991 2 6.88686 6.44639 4.6406 0 1 1 73.8221 8.56464 0.458248 0.508853 73.3531 0.209991 0.258931 
3029 1 6.90051 3.72174 3.59248 0 0 0 0.837333 -0.814215 -0.381208 0.170496 0.662945 0.145319 0.0290688 
2196 1 5.93893 2.21679 4.40091 0 0 1 0.34506 -0.532302 -0.133352 0.2096 0.283345 0.0177828 0.0439321 
16 1 5.10481 0.312102 6.25622 0 0 0 0.0434787 0.115268 -0.132802 0.112052 0.0132866 0.0176363 0.0125557 
3969 2 7.11514 2.37293 8.78628 0 0 0 0.294707 -0.362109 -0.388159 0.113648 0.131123 0.150668 0.0129158 
1094 1 6.74747 2.81579 0.742304 0 0 0 0.411268 -0.535413 -0.323313 0.141664 0.286668 0.104531 0.0200687 
1844 1 8.18744 6.18332 3.38126 0 0 1 5.73538 -1.91809 0.110132 1.42975 3.67907 0.012129 2.04418 
2739 1 6.79748 1.04112 2.09967 0 0 1 0.244928 -0.0756808 -0.486851 0.0466518 0.00572758 0.237024 0.00217639 
2723 1 7.89787 2.70909 8.76018 0 0 0 0.503252 -0.589262 -0.38902 -0.0684542 0.34723 0.151336 0.00468598 
1184 1 12.2352 7.06919 6.25556 0 0 0 1.83268 -1.29703 0.386108 0.0363359 1.68228 0.149079 0.0013203 
3734 2 10.3105 7.16662 9.62697 -1 -1 0 119.406 -10.9031 -0.285857 0.668752 118.877 0.0817143 0.447229 
1829 1 11.108 9.28013 5.54647 0 0 0 0.862204 -0.56888 0.209117 -0.703455 0.323624 0.0437301 0.494849 
3756 2 12.9327 9.1821 3.52281 0 0 1 3.04415 -0.896589 1.35238 0.641356 0.803873 1.82894 0.411338 
2762 1 9.40541 0.411963 5.33559 0 1 -1 91.9926 9.58558 -0.192982 -0.268464 91.8833 0.0372422 0.072073 
1689 1 9.17582 0.470147 8.33583 0 0 0 0.367017 -0.1127 -0.590304 0.0765279 0.0127014 0.348459 0.00585652 
1241 1 10.7269 9.2368 4.4902 0 0 1 0.169685 0.0712961 -0.159829 0.372903 0.00508314 0.0255452 0.139057 
2427 1 2.29322 3.99839 2.57882 0 1 0 72.646 8.52275 0.092905 -0.00597713 72.6373 0.00863134 3.57261e-05 
4235 2 3.58332 3.1373 3.27047 1 0 -1 0.796169 -0.872562 -0.124216 0.139196 0.761364 0.0154296 0.0193755 
649 1 3.00595 4.41821 1.24391 0 0 1 1.56369 -1.11417 -0.103929 -0.558129 1.24138 0.0108012 0.311508 
3508 2 3.05335 3.91216 2.07569 0 1 1 70.2351 8.37979 0.119263 0.00479592 70.2209 0.0142236 2.30008e-05 
1639 1 3.71865 4.38818 2.14643 0 0 0 2.13656 -1.44562 -0.18956 0.103998 2.08981 0.0359331 0.0108155 
1277 1 3.24078 3.91769 2.98726 0 0 -1 1.55735 -1.238 -0.144318 0.0623655 1.53263 0.0208277 0.00388946 
1536 1 3.93143 3.17923 2.52171 0 0 0 0.715436 -0.773967 -0.292752 0.175237 0.599025 0.0857037 0.0307081 
3869 2 4.38764 3.99392 2.73569 0 0 -1 1.07674 -1.03118 -0.0802028 -0.0834909 1.06334 0.0064325 0.00697073 
533 1 4.61582 3.75178 1.91456 0 0 0 1.32035 -1.11829 -0.191864 0.181551 1.25058 0.0368117 0.0329608 
1158 1 5.12643 3.38009 2.7873 0 0 0 0.650519 -0.746941 -0.301558 0.0407427 0.557921 0.0909374 0.00165996 
1035 1 5.24397 4.35079 2.57993 0 0 1 0.843452 -0.860755 -0.311696 0.0734791 0.740899 0.0971541 0.00539918 
2936 1 8.13913 4.6773 4.72491 0 0 1 3.76648 -1.86563 -0.484822 -0.225502 3.48057 0.235052 0.0508513 
1371 1 5.48014 3.16152 6.17448 0 1 0 78.3745 8.8488 -0.26891 -0.0299162 78.3013 0.0723128 0.00089498 
1880 1 8.76829 7.7998 5.48499 0 0 0 4.3394 -1.57869 -0.528769 -1.25201 2.49226 0.279597 1.56754 
2789 1 8.65163 7.16944 8.74246 0 0 -1 1.11952 -0.547513 -0.762349 -0.488439 0.29977 0.581177 0.238573 
642 1 6.85707 1.7348 4.49186 0 0 0 0.354655 -0.348832 -0.446359 -0.18367 0.121684 0.199236 0.0337347 
3800 2 7.57056 5.39721 4.51582 0 0 -1 4.8999 -2.19665 0.0072736 0.273054 4.82529 5.29053e-05 0.0745587 
1316 1 9.49771 1.3938 0.202067 0 1 0 89.0934 9.43189 -0.363016 0.0315533 88.9606 0.13178 0.000995612 
2155 1 6.383 0.418012 7.45282 0 0 1 0.11442 0.09129 -0.232329 -0.228275 0.00833387 0.0539769 0.0521095 
2234 1 7.50176 2.40248 2.18701 0 0 1 0.402262 -0.470693 -0.404379 0.131102 0.221552 0.163523 0.0171876 
2661 1 8.02658 3.72699 6.43353 0 0 1 1.3695 -1.12489 -0.30495 -0.105494 1.26538 0.0929945 0.011129 
2167 1 8.84567 1.60219 7.98999 0 0 0 0.504592 -0.308258 -0.63971 -0.0184541 0.095023 0.409229 0.000340554 
3848 2 9.73606 3.63349 5.50459 0 0 -1 1.80842 -1.06579 -0.819194 -0.037701 1.13592 0.671079 0.00142137 
1835 1 8.35033 1.61988 0.836309 0 1 0 82.8662 9.09716 -0.261103 0.199265 82.7583 0.0681746 0.0397066 
3135 1 8.99628 2.44008 0.423229 0 0 1 1.24066 -0.691153 -0.219238 -0.845519 0.477692 0.0480653 0.714902 
1849 1 9.91541 6.89946 3.76844 0 0 0 0.865137 -0.472947 -0.666099 -0.444713 0.223679 0.443688 0.197769 
3100 1 10.0526 4.82896 4.26468 0 0 -1 4.17827 -2.03897 -0.0854868 -0.116387 4.15741 0.00730799 0.013546 
2444 1 9.5149 5.68716 2.3781 0 0 0 5.23814 -1.337 -1.75534 -0.607726 1.78758 3.08123 0.369331 
2120 1 9.44451 1.8536 2.3939 0 0 0 0.148372 -0.326295 -0.198688 -0.0492631 0.106469 0.0394768 0.00242685 
1921 1 6.76167 9.63648 6.02066 0 0 0 0.96908 -0.525996 0.623451 -0.551105 0.276672 0.388691 0.303717 
3411 1 9.94902 1.29139 5.73507 0 1 0 98.4767 9.86202 -1.03511 -0.381952 97.2594 1.07146 0.145887 
4053 2 2.32812 4.36571 1.78478 0 0 -1 2.47086 -1.31936 -0.462753 -0.718343 1.7407 0.21414 0.516017 
1018 1 11.5793 6.63737 0.847899 0 0 -1 5.77949 -2.27438 0.536812 0.564385 5.1728 0.288167 0.31853 
717 1 10.9446 4.43801 3.97691 -1 0 1 4.3874 -2.06672 -0.301696 0.158318 4.27131 0.0910207 0.0250647 
1083 1 3.95552 4.70441 3.1764 0 0 0 2.22339 -1.46922 -0.254138 0.0135278 2.15862 0.0645861 0.000183 