LAMMPS data file via write_data, version 12 Dec 2018, timestep = 143880

4320 atoms
2 atom types

0.0000000000000000e+00 1.9309999999999999e+01 xlo xhi
0.0000000000000000e+00 1.9309999999999999e+01 ylo yhi
0.0000000000000000e+00 9.6549999999999994e+00 zlo zhi
2.1047899999999977e+00 0.0000000000000000e+00 0.0000000000000000e+00 xy xz yz

Masses

1 1
2 1

Atoms # atomic

1538 1 9.6723443274683572e+00 1.0278557487193003e+00 3.1796176399600036e+00 0 0 0
3793 2 7.9925456653984916e+00 6.1126272411184256e-02 3.5955569782036872e-01 0 1 0
2946 1 9.3491515351966825e+00 1.6649962611718880e-01 8.1178403481144101e-01 0 0 0
1218 1 1.0185026266385071e+00 9.2406886671191635e-01 9.8622433366452456e-01 0 1 0
3622 2 1.7823414227472389e+00 1.1447189551434360e+00 7.6948062715094145e-01 0 0 1
1103 1 9.4007240304232980e+00 8.0367529862402454e-01 4.1898317007736088e+00 0 0 0
967 1 1.1705676667920877e+00 1.8277738358811098e+00 5.2756539570220429e-01 0 0 0
3205 1 2.1240297367958410e+00 1.9687015721719958e+00 9.0723346587074760e-01 1 1 0
4041 2 9.3455288762290305e+00 3.3394012962434394e-01 3.5487266919305491e+00 0 1 0
851 1 2.7023085801008291e+00 1.1836273187252084e+00 5.6443453299933888e-01 0 1 0
253 1 3.1906092092570395e+00 4.5795320810765511e-01 1.3135812609657973e+00 0 1 0
1190 1 3.7380513645145115e+00 1.3668939420252204e+00 1.0813823415067509e+00 0 0 1
3918 2 3.5103918786707400e+00 1.4281801602647870e+00 2.7571800165547261e-01 0 1 0
30 1 6.6075391859270169e+00 3.6869295740586741e+00 3.9741915642811643e+00 0 0 0
1127 1 3.7054029345437387e+00 5.7513793372711353e-01 3.3182131241712826e-01 0 0 1
1554 1 4.6454354281672359e+00 1.0673857001265370e+00 7.5638567188633443e-01 0 0 1
4116 2 4.3155575723280277e+00 8.5690636249672314e-01 1.5847762285122784e+00 1 0 -1
95 1 5.2545277081875037e+00 5.4257443895214463e-01 1.5736972181579101e+00 0 0 0
2174 1 5.5122332412246084e+00 4.4378538621589686e-01 6.1978716908139986e-01 0 1 0
465 1 2.5496953427236085e-01 2.2106973480585093e+00 8.2493178937631573e-01 0 1 1
870 1 5.6676160194201834e+00 1.5900740367342607e+00 1.1459110292675740e+00 0 1 1
1798 1 6.4223443299001675e+00 9.4205901959690430e-01 8.6698407680535461e-01 0 1 0
3771 2 9.8669821207579584e+00 3.5347269654856825e+00 3.6367921479250191e+00 0 1 -1
1711 1 9.6674014925208489e+00 3.0557380060207788e+00 3.8118668704858194e-01 0 1 0
1615 1 7.3929717736012917e+00 1.4841452766507908e+00 1.0443711987600111e+00 0 0 1
1678 1 9.5473314530813038e+00 3.3800494351315047e+00 2.7779101222421807e+00 0 0 1
386 1 5.9321911714297784e+00 7.8759101111859187e-02 3.6896752468152729e+00 0 1 0
767 1 8.3602829127082305e+00 2.0158725675474568e-01 1.2484435023585432e+00 0 1 0
1359 1 8.1171961155049939e+00 8.9694603813774265e-01 5.1238598138581959e-01 0 1 1
3468 2 8.2963558271950628e+00 1.5061062816260979e+00 1.1062538450520707e+00 -1 0 1
2250 1 9.6964588262523481e+00 1.9427274331443944e+00 3.7440099010532650e+00 0 1 0
1470 1 9.5180229074836120e+00 3.1408713030925774e+00 1.4783462026062277e+00 0 0 0
779 1 1.8079785301633595e+00 4.5260039647267378e+00 3.7803327187934443e+00 0 0 0
708 1 5.4222201297879891e-01 2.8718775895259885e+00 1.5626105387951017e+00 0 0 1
115 1 2.0904604299490348e+00 4.3777513986678596e-01 1.0762936419233791e+00 0 0 0
3478 2 9.9374061644853606e-01 2.6470677541858683e+00 6.1728358517580884e-01 0 0 -1
254 1 1.5545728981783693e+00 2.9132348756231390e+00 1.2103952874099693e+00 0 1 0
2960 1 1.1003226750965156e+00 1.9264614668036302e+00 1.6238596933357157e+00 1 0 0
1160 1 9.0198567733757322e+00 1.0006165777638505e+00 1.5258866456124516e+00 0 0 0
3599 2 2.0376516844515038e+00 3.3470507341014315e+00 6.9962858062924893e-01 0 0 0
622 1 2.6948638153993811e+00 2.8210812044983400e+00 5.9662859391880030e-01 0 0 1
3750 2 3.0188248921919500e+00 1.9369220024025531e+00 8.2644602715432403e-01 0 0 1
34 1 3.8190390387584521e+00 2.3229433965255719e+00 6.0702829922017743e-01 0 0 0
1065 1 3.1566214283005847e+00 2.4441833657735663e+00 1.5398236128411804e+00 0 0 0
968 1 4.9185697656480594e+00 2.2720091603476638e+00 6.5380691893627430e-01 0 0 1
3708 2 4.5530426490940998e+00 1.8583088325129520e+00 1.2974584404838814e+00 0 0 0
1166 1 4.4021508532759226e+00 2.8884676808833545e+00 1.3455651340291033e+00 0 0 1
3768 2 4.7289667658854935e+00 3.1091104068751778e+00 5.4724195607708315e-01 0 1 0
3676 2 9.3831323964583095e+00 1.6395856856582856e+00 2.2661682620515848e+00 0 1 1
3757 2 6.4650554760171808e+00 1.8215855607214733e+00 1.0429309677131329e+00 0 0 1
1764 1 5.9574108096062224e+00 2.4926957533979213e+00 7.6596131596996442e-01 0 1 0
1617 1 7.0839811137661322e+00 2.4847675027760578e+00 7.4575778974900198e-01 0 0 1
1098 1 9.0712618896778885e+00 2.2184170224417596e+00 2.7810388467323196e-02 0 0 1
1499 1 8.1236433901281355e+00 1.9725569565824999e+00 3.7210799437812925e-01 0 0 1
50 1 5.1828359766066381e+00 4.7286558847503777e+00 1.6383702954527921e+00 0 0 0
497 1 7.8712442273759575e-01 4.0360166367155301e+00 1.2864361146088144e+00 0 0 0
887 1 2.6930235793583739e+00 5.4354529118786639e-02 4.2035155708096354e+00 0 1 0
4129 2 9.8324993865656918e+00 4.1716922488754911e+00 2.7959079301017771e+00 1 0 1
242 1 4.2467531110585561e+00 4.0583907582151864e-02 1.1270835590467259e+00 0 0 1
987 1 6.4745124954568780e+00 1.6906667841370941e+00 1.7289946489802396e-01 0 0 0
3085 1 1.2254364116129517e+00 3.5149445215880664e+00 4.0755972320048039e-01 1 0 1
3799 2 1.2181822382573941e+00 4.6412556011999149e+00 6.6571737992528446e-01 0 1 0
171 1 1.9011627387061809e+00 4.2116330606533401e+00 1.0873713068335020e+00 0 0 1
1513 1 7.5910591265965843e+00 4.3994081051231007e+00 7.6922172661196198e-01 0 0 0
952 1 9.0863138224587736e+00 2.0705397248721371e+00 1.2391808594892841e+00 0 0 0
656 1 3.9545251821812228e+00 3.4726586359996814e+00 5.5251872805124669e-01 0 0 1
2996 1 3.6630728609460816e+00 4.4543105863738832e+00 1.1584614405325890e+00 1 0 0
717 1 2.9296448561944182e+00 3.8402906853956891e+00 6.9292478994796947e-01 0 0 1
3688 2 3.1462943168179689e+00 3.7308816698259171e+00 4.7013585375316582e+00 0 1 0
668 1 3.5340837894366874e+00 3.4696926164597248e+00 1.5133423638498773e+00 0 0 0
2201 1 9.2279917891073566e+00 4.1388531112914384e+00 1.1480318329131611e+00 0 1 0
1472 1 9.9264361946947712e+00 3.9283612953469973e+00 1.9639282445254578e+00 0 0 0
1019 1 5.4277751097457116e+00 3.2992753378874027e+00 1.0652908047677567e+00 0 0 0
1198 1 4.5953728543384873e+00 3.9364414806301466e+00 1.1356380011850564e+00 0 1 0
3627 2 5.3066169816137148e+00 4.2933657455299006e+00 8.6420978072567500e-01 0 0 1
1870 1 9.0766538271753134e+00 1.2896228393685960e+00 4.9855567374303345e-01 0 1 1
3503 2 8.8285453098101918e+00 2.2010663869942819e+00 3.9729207973791740e+00 -1 0 2
567 1 6.5970516130344885e+00 3.3334338447711374e+00 1.1683794586045821e+00 0 0 0
669 1 6.0041792048774543e+00 4.1180770377078817e+00 1.3868326435669240e+00 0 0 1
3865 2 6.6906821574986814e+00 4.2994969778044565e+00 8.2737657565610656e-01 0 0 0
1051 1 5.9709459187220482e+00 3.8835162622704757e+00 2.6254254210665362e-01 0 0 0
2098 1 6.9991990403650650e+00 3.6497527966896124e+00 2.9710045164696430e-01 0 0 1
3588 2 2.9139022098396978e+00 3.5701732229059360e+00 3.7015347581340148e+00 0 0 0
1783 1 5.3523630871117538e+00 1.8530420965920158e-01 2.7980587147923499e+00 0 1 0
503 1 8.6394363859935179e+00 2.9836599091314429e+00 7.5906470763530043e-01 0 0 0
1506 1 7.6562176240124504e+00 3.3469244254544206e+00 1.0411460257389240e+00 0 0 0
1564 1 8.4576019694727087e+00 3.9695966350312029e+00 4.1996951005485017e-01 0 0 1
1572 1 8.1813395813665153e+00 4.0925168403808563e+00 1.5773300471186298e+00 0 0 1
1145 1 9.1032300332926024e+00 4.6793437939989486e+00 4.3432160464265843e+00 0 0 0
3040 1 4.0504104468943716e+00 4.4401628285267396e+00 3.0901171154906606e-02 1 0 0
1433 1 1.0025370416211340e+01 4.8187613269599163e+00 1.4212673136566278e+00 0 0 0
94 1 2.5237327052374141e+00 1.2949478620215421e-01 3.2188412367732013e+00 0 0 0
140 1 7.4801827535905518e-01 9.9232009003707455e-01 2.1017634963127869e+00 0 0 0
135 1 3.5540275722117148e-01 2.0107015431388335e+00 2.5449657725229384e+00 0 0 1
520 1 1.8130405542769326e+00 1.2026352478177680e+00 1.7897250726373961e+00 0 0 0
3167 1 8.1242406606000994e-01 1.0224976099009584e+00 3.1719333767467961e+00 1 0 1
715 1 1.8360117657543542e+00 8.7823154210150600e-01 2.8288680081182180e+00 0 0 0
2064 1 1.7494799791798974e+00 2.6026341459043461e+00 1.8270203964125853e-01 1 0 1
1000 1 2.7683793699218211e+00 1.4460466883226717e+00 1.5853992708714513e+00 0 0 0
4214 2 2.3640886680617839e+00 1.5964293286109918e+00 2.3556499175218817e+00 1 0 0
817 1 2.5846898045068514e+00 5.6667315939150253e-01 2.1935745736147045e+00 0 1 0
159 1 3.5405902144608183e+00 1.0630601373223743e+00 2.1011959435537322e+00 0 0 0
992 1 2.9444017950263492e+00 1.2307091941630213e+00 2.9496274535225990e+00 0 0 0
966 1 3.5639273721270164e+00 3.4696129669901454e-01 2.9018735949531269e+00 0 0 0
1134 1 4.0213380763964395e+00 1.3678555174892644e+00 3.0506850883964138e+00 0 0 1
1040 1 4.7823212447799488e+00 1.4582177017039153e+00 1.9658629031225985e+00 0 0 0
1358 1 4.4283958316389960e+00 6.2049200653077186e-01 2.4435444981208496e+00 0 1 1
1621 1 8.2572410212306000e+00 4.6104844317086853e+00 3.4050074622729545e+00 0 0 0
3878 2 5.5794836952278191e+00 9.7459802904596982e-01 2.2928530718207041e+00 0 0 1
631 1 5.1090749214904880e+00 1.1968783592902945e+00 3.0196103351541810e+00 0 0 0
3756 2 7.2537510897369639e+00 7.6803992305317281e-01 1.5607606769573126e+00 0 0 1
1357 1 6.2429937892965253e+00 4.0894776302944885e-01 2.0259944617322878e+00 0 1 1
575 1 6.1265307685581911e+00 9.1550350123787783e-01 3.0187234942381758e+00 0 0 0
722 1 6.5981516005410503e+00 1.3233887365087587e+00 1.8106231390294174e+00 0 1 0
1147 1 7.0779657575712616e+00 8.0295583960819250e-01 2.5319510258014035e+00 0 0 1
1351 1 8.0271738127650938e+00 1.0323672957803762e+00 1.7887466546931479e+00 0 1 0
3775 2 8.0994072123583649e+00 5.1932488085397843e-01 2.9961318024390140e+00 0 1 0
1455 1 9.4090747705851214e+00 5.6824029482823682e-02 2.6038342065085089e+00 0 0 0
1457 1 9.7222796061212620e+00 4.3951955898515163e+00 3.6282794840736607e+00 0 0 0
691 1 4.4611406628120598e+00 4.6082843395167732e+00 3.6229917132773153e+00 0 0 0
4110 2 7.7148736197311107e-02 6.6809022094029324e-01 3.7922305664919143e+00 1 0 0
1906 1 7.4086737481297806e+00 3.3648038907080396e-01 4.7517117235599713e+00 0 1 0
4049 2 6.0064319267384692e-01 2.9900140103737840e+00 2.8231195588779028e+00 1 1 1
559 1 2.9020065358383444e+00 4.3986668327247367e+00 3.8783494750540397e+00 0 0 0
431 1 1.3872763635633942e+00 1.7461186031905289e+00 2.6012152667021802e+00 0 1 1
558 1 2.1192418420828405e+00 2.3053448560562888e+00 1.9458649013536053e+00 0 0 0
2962 1 1.1881874761099991e+00 2.7455461570800126e+00 2.3162302920264222e+00 1 0 0
83 1 2.2015528329320029e+00 3.0307611982542224e+00 2.6005420383724660e+00 0 0 0
166 1 2.2375491700768055e+00 2.0287326509776893e+00 3.1304414229599384e+00 0 0 0
1376 1 3.0762710235116608e+00 2.0993293167781300e+00 2.4588592167767884e+00 0 1 0
3606 2 3.0226679204011817e+00 2.9800186188395021e+00 2.1831585017407589e+00 0 0 0
2941 1 3.9110093334262013e+00 2.9863653507677710e+00 2.3725222929722651e+00 1 0 0
3608 2 3.8098914043953656e+00 2.1332071381772169e+00 2.9016040556521081e+00 0 0 0
3128 1 3.0831425687765290e+00 2.9164439387848144e+00 3.1536555126687014e+00 1 0 0
555 1 3.9740147817186018e+00 2.0377329521574126e+00 1.9513552110490162e+00 0 0 0
505 1 5.2001402822158287e+00 2.3506115145137310e+00 1.6633369936618208e+00 0 0 0
663 1 4.6891775749653108e+00 2.2630727009944800e+00 2.6335564467798811e+00 0 0 0
3686 2 4.8086722703920470e+00 3.0326784549129031e+00 2.2096757131049536e+00 0 1 0
1446 1 5.5494299096907920e+00 2.8118774223442031e+00 2.5765260093670381e+00 0 0 0
568 1 5.8638589404679182e+00 1.7738046512746819e+00 2.3589077659986528e+00 0 0 0
3703 2 5.7974867683613196e+00 3.0075265373107190e+00 1.7861269011800527e+00 0 0 0
3533 2 6.6855802262026476e+00 1.5290701024922904e+00 2.7257416739291296e+00 0 1 0
1462 1 6.4191509772977291e+00 2.3788696380986423e+00 1.7348192162418796e+00 0 0 0
1511 1 6.6943244691186896e+00 2.4553516664361332e+00 2.7220813971794779e+00 0 0 0
1561 1 7.3492406612376762e+00 2.9640309390050485e+00 1.9734853454523846e+00 0 0 0
2197 1 7.8565930507109947e+00 1.3439346584826724e+00 2.9106193567536209e+00 0 1 0
566 1 7.4243973473839100e+00 1.9535170863246119e+00 2.2194314558471619e+00 0 0 0
1437 1 7.9777474875893635e+00 2.3750650690383504e+00 1.3432892128706937e+00 0 0 0
2101 1 8.5137590320668082e+00 1.8666987704152480e+00 2.0588203442724669e+00 0 0 1
3946 2 8.1508152954222162e+00 2.5955910495709258e+00 2.2276805229973480e+00 0 1 0
1721 1 7.6915563608470494e+00 2.4880983335663052e+00 3.0392878575863014e+00 0 1 0
2421 1 8.5869455025459995e+00 2.9399727421835671e+00 2.9338331322474609e+00 0 0 0
3288 1 6.7067329631564609e-01 5.8048995379315002e-02 3.8860636808480318e+00 1 1 0
162 1 5.7092170357168781e-01 3.7656856689028086e+00 2.2970120379014176e+00 0 0 0
1191 1 5.7051803292550325e+00 4.4749665647879606e+00 3.8963383406517873e+00 0 0 0
1696 1 8.1829896457344624e+00 4.2772837855510328e+00 4.4563909677787299e+00 0 0 0
492 1 8.8762697705812155e-01 4.5998558149333943e+00 3.0869057982492238e+00 0 0 0
1090 1 5.7604657529553354e+00 3.4433983067499396e-01 4.7961786102050876e+00 0 0 0
615 1 2.5047307560176160e+00 3.3880039488781084e+00 1.5730841065522114e+00 0 0 1
3028 1 1.5141763242335484e+00 3.6723954307521498e+00 1.9519479253757410e+00 1 0 0
3610 2 1.5795901981478560e+00 4.2738855757943952e+00 2.6684483254046452e+00 0 0 0
636 1 2.3535133483009014e+00 4.4354926599038134e+00 2.0966412826638847e+00 0 0 1
2965 1 1.2748610904391193e+00 3.6259590469995189e+00 3.1494183759144478e+00 1 0 0
2976 1 1.1585786904894875e+00 4.7003505077870020e+00 1.9952219999099050e+00 1 0 0
1039 1 4.2049049951055686e+00 4.1621574526377882e+00 2.0949903705391257e+00 0 0 0
4238 2 2.9509080037009570e+00 4.0918273910055722e+00 1.5879478843650943e+00 1 0 0
3619 2 3.6984577185346152e+00 3.5300288572626579e+00 3.0785009339343241e+00 0 0 1
586 1 3.1238625156343165e+00 3.8251721803577379e+00 2.3864095167259420e+00 0 0 0
1022 1 3.6368440524214640e+00 4.5472956327838769e+00 3.0141538569673267e+00 0 0 -1
1682 1 7.5474479997495347e+00 3.8208558716094596e+00 3.7190101104310695e+00 0 0 0
1440 1 4.5905882352302312e+00 3.5473704082781441e+00 2.9354738706808239e+00 0 0 0
664 1 5.2805731953355632e+00 3.7616600230429924e+00 2.0997093073715565e+00 0 0 0
550 1 5.1744604106503784e+00 4.4858769526339870e+00 2.8241670531372964e+00 0 0 0
655 1 6.2166317788019709e+00 4.5292781422455084e+00 2.3111930518888246e+00 0 0 1
994 1 5.7797365629735884e+00 3.6743124799772446e+00 3.2005268944779437e+00 0 0 0
1428 1 7.1003057203235276e+00 4.1845273139856527e+00 1.6639913865301286e+00 0 0 0
4042 2 4.1461279442819805e+00 6.9953198349823975e-01 4.7039088050499593e+00 0 1 0
534 1 7.0105226680244526e+00 3.3468593244162710e+00 3.0096663817582714e+00 0 0 0
1271 1 6.3761792109580009e+00 3.4929882822888372e+00 2.2203654158853401e+00 0 1 0
1071 1 7.3532484208219389e+00 1.5722999064808336e+00 4.6369424476969918e+00 0 0 -1
3838 2 6.9777861868955462e+00 4.1510863673590741e+00 2.4990820058267702e+00 0 0 0
1625 1 3.8681967833283117e+00 4.5858216656257964e+00 4.4856189714813999e+00 0 0 0
1072 1 8.5654534485403602e+00 3.2470383899200073e+00 1.9109721466324268e+00 0 0 0
1535 1 7.9800231477451362e+00 3.8221280545958201e+00 2.5695226747783693e+00 0 0 0
3964 2 9.0009968471389392e+00 3.9751216233965732e+00 1.9734965786543306e+00 0 1 0
1858 1 8.8214407936268593e+00 1.5466345287517964e+00 4.5671639538983699e+00 0 1 0
1117 1 4.9349904242740683e+00 3.7874289131378087e+00 4.6754144968570929e-02 0 0 1
2076 1 8.7968220209375403e+00 1.9074339421175515e+00 3.1020874578789557e+00 0 0 1
1458 1 7.2686792405399983e+00 1.4342321429095869e-01 9.1320836334120259e-01 0 0 0
689 1 6.2766845629854684e-01 1.1474221039397876e+00 4.2009520592646927e+00 0 0 0
4299 2 7.2577606950379836e-01 1.8787569818870762e+00 3.4968578107761701e+00 1 1 1
599 1 3.7718856185255771e+00 2.5499549023348400e-01 3.9522407082438500e+00 0 0 0
3121 1 9.5546101838628292e+00 3.6300999490346442e+00 4.5585684637242982e+00 0 0 0
194 1 1.5764168059346924e+00 5.8292983173580204e-01 4.5319291595769586e+00 0 0 0
3855 2 1.4800063995963582e+00 6.8845824117952337e-01 3.6230395125442936e+00 0 0 0
3192 1 1.5073624029541881e+00 1.5580342608308289e+00 3.7826268740303988e+00 1 0 0
1785 1 8.3323969062107022e+00 7.6318380851091119e-02 2.3126607300264732e+00 0 1 0
1880 1 8.9438060764933116e+00 4.2432649266125857e+00 2.7982678441197311e+00 0 0 0
1584 1 2.3598819566480604e+00 9.8783415408616171e-01 3.7577687247030651e+00 0 0 0
3464 2 3.1047208479508002e+00 6.2957041654063017e-01 3.6026362438161756e+00 0 0 -1
652 1 3.5032146076884296e+00 1.2138123347510055e+00 4.1520410984943039e+00 0 0 0
1622 1 8.8072425800038037e+00 3.8182526983376084e+00 3.7483760081037460e+00 0 0 0
991 1 8.8503757274722670e+00 1.0217244558361471e+00 2.5375706778889540e+00 0 0 0
4264 2 4.4032377271295937e+00 6.2654323651765875e-01 3.3113705004282337e+00 1 0 1
1054 1 4.9079029143258097e+00 2.4401375255887456e-01 3.9062440237314431e+00 0 0 0
481 1 4.4954168317551426e+00 1.2253719075794012e+00 3.9920771074460402e+00 0 0 0
235 1 5.5119289082030143e+00 1.0835372861630541e+00 3.9912556414132139e+00 0 0 0
3764 2 9.0631078074540294e+00 2.2736905237338711e-01 1.8454074041493478e+00 0 1 -1
3856 2 6.7352893248525243e+00 3.6108779193176999e-01 3.3320849709183467e+00 0 0 0
2360 1 6.5290699634459113e+00 7.5074933407111522e-01 4.2387887053783047e+00 0 1 0
3590 2 6.5945278990323137e+00 4.5595355613628383e+00 4.1199481156040667e+00 0 0 -1
3587 2 8.2716834003093975e+00 4.6169236015088382e+00 2.3911644347358720e+00 0 0 0
1950 1 8.5818749432018233e+00 1.0012254171448320e+00 3.6549870276314893e+00 0 0 0
4029 2 7.9571942146299470e+00 1.0848487898192263e+00 4.3642340849376602e+00 0 1 0
580 1 7.5535745566202062e+00 7.3639666863267061e-01 3.7056261360797702e+00 0 0 0
878 1 8.3642114508734711e+00 3.9086685361300144e-01 4.4769928276014879e+00 0 1 0
3772 2 2.8866111217525865e+00 1.8137361786733611e-01 5.1482520631172535e-01 0 1 1
1425 1 9.2843830141079273e+00 2.8830947847173332e+00 3.7619017350339039e+00 0 1 0
17 1 1.4505218411411556e+00 1.9321230376130516e-01 1.7976995909862703e+00 0 0 0
1242 1 5.4420234028756278e+00 1.4971615840259564e+00 5.8495313448132656e-02 0 1 0
906 1 9.2828048983067379e+00 2.4647806933665897e+00 2.2937704983998408e+00 0 1 0
932 1 2.8272639851141851e-01 1.6055779200738576e-01 1.1534772058692842e+00 0 1 0
3490 2 7.7192092333686002e-01 3.1504701158799304e+00 3.7275174710661556e+00 0 0 0
2562 1 6.3796399398344250e-01 2.2672373057411654e+00 4.3003629956852949e+00 1 0 -1
3080 1 1.2570793270648895e+00 2.5538226698664772e+00 3.3236892347507578e+00 1 0 0
3480 2 1.5569911802773748e+00 2.3218186887466055e+00 4.2496017655584817e+00 0 0 0
700 1 1.3903832504304510e+00 3.1000354109826342e+00 4.4313575870190247e+00 0 0 0
288 1 2.1292143790336144e+00 2.9732040197980583e+00 3.6565303506559226e+00 0 1 0
4208 2 2.3679114171577851e+00 2.7546838343169737e+00 4.5325454958510134e+00 1 0 0
543 1 2.3518468929139935e+00 1.9616793768169418e+00 4.2114151301543448e+00 0 0 0
1165 1 3.2573670336629745e+00 2.0189376977659754e+00 3.6103733003251461e+00 0 0 0
802 1 3.2605848175245211e+00 2.9096270839849114e+00 4.2989052108163017e+00 0 1 0
572 1 4.0430362798182653e+00 2.7556958104587763e+00 3.4893031309066598e+00 0 0 0
1167 1 4.1962910656380012e+00 2.1705813857584459e+00 4.3748610901319740e+00 0 0 0
2108 1 7.5990479043607122e+00 3.3909787436751575e+00 4.7427114199203144e+00 0 0 0
3719 2 4.1267094349433275e+00 3.0968993938175307e+00 4.3030816566600798e+00 0 0 -1
4119 2 4.6285926377169089e+00 1.9374257556392545e+00 3.5078075898246932e+00 0 0 0
1007 1 5.2616736496101284e+00 2.0758889029179572e+00 4.3297060414714696e+00 0 0 0
2164 1 5.1486624390353235e+00 2.8192834537521314e+00 3.5824611725636513e+00 0 0 1
3884 2 5.6920808867772763e+00 2.7113230092526224e+00 4.6451665251273937e+00 0 0 1
1062 1 5.7376278140513222e+00 1.8874721628851261e+00 3.4072980278482534e+00 0 0 0
1194 1 6.9499026891455937e+00 1.6740427141645653e+00 3.5231059184123272e+00 0 1 0
814 1 6.3599161755135984e+00 1.8600648821679897e+00 4.3354287527525681e+00 0 1 0
1081 1 6.2383588937540893e+00 2.7742306589738854e+00 3.7264582535251085e+00 0 0 1
860 1 7.2366567914422149e+00 2.5773051002036262e+00 4.0050123690597159e+00 0 1 1
3460 2 9.4910195336647742e+00 2.5510484983016539e+00 3.0557387907637521e+00 -1 0 0
3631 2 4.5025346325280351e+00 4.7666834713103476e+00 9.9108019505761846e-01 0 0 1
628 1 7.1888696345006862e+00 4.4261518486098712e+00 4.7149461801180248e+00 0 0 0
1573 1 8.0420216427374687e+00 1.8551380746092472e+00 3.8738607495137267e+00 0 0 0
537 1 8.2533157912890260e+00 2.9114128847091476e+00 4.0430344652525996e+00 0 0 0
508 1 6.7046522083051512e+00 4.3942062746911938e+00 3.3098963785914877e+00 0 0 0
1042 1 2.4033807010553327e+00 4.6532769776875353e+00 1.3937646926882619e-01 0 0 0
114 1 8.2328786109576924e-01 3.9937122248498937e+00 4.0972897865379334e+00 0 0 0
124 1 5.7086009455851965e+00 3.5397405946459819e+00 4.3099386597308893e+00 0 0 0
177 1 2.2938118641918268e+00 3.9061810107972859e+00 3.1298177822583755e+00 0 0 0
1505 1 4.7521821024197379e+00 3.7575285023804503e+00 4.0653410985647014e+00 0 0 0
232 1 2.3441326012650099e+00 3.6279729933697911e+00 4.4807644500983379e+00 0 0 0
2084 1 9.5114317767931151e+00 3.9863384859875244e+00 1.1003790825984948e-02 0 0 1
4148 2 1.7480344651757946e+00 3.7135695764816230e+00 3.9060887275979628e+00 1 0 0
1963 1 9.1413610748527994e+00 2.5628666920356165e+00 4.7245124020377007e+00 0 0 0
1402 1 6.3805585156439975e+00 6.8338926083902130e-02 9.6847272071685517e-02 0 1 1
3127 1 3.7598531555600649e+00 3.7810964869743424e+00 3.8736480250421841e+00 1 0 0
3482 2 8.8613569324818826e+00 4.7205978074814023e+00 2.1923357298405905e-02 0 0 1
513 1 5.0377471558206635e+00 4.4359406784802520e+00 4.7643857212452270e+00 0 0 0
2037 1 7.5086162623308690e+00 4.7653361148931266e+00 2.7217748271397095e+00 0 0 0
1029 1 7.1622645514461603e+00 8.2548561054510994e-01 1.1671505102284095e-01 0 0 0
4240 2 3.3039741468446353e+00 4.7998046048621781e+00 3.0581657269017970e-01 1 0 0
4177 2 5.8149614132693133e+00 1.3033752800475225e+00 4.7903335157857194e+00 0 1 0
548 1 6.5450936799874535e+00 2.8812606335849806e+00 4.6977241651233932e+00 0 0 0
208 1 7.7439393889760710e-01 4.8042970348965994e+00 4.7924916050198387e+00 0 0 0
57 1 1.3663248415847062e+00 1.5969390676038211e+00 4.7884520843820679e+00 0 0 0
1001 1 7.7878584634795072e+00 2.9650124235128450e+00 4.3077141297061659e-02 0 0 0
1488 1 6.8912353970591900e+00 4.7703789894985134e+00 4.6091827203695604e-02 0 0 0
137 1 2.0956794559057945e+00 3.6881847030678216e-01 8.0530893156375433e-02 0 0 1
2123 1 9.2834482221443970e+00 1.0696068726085086e+00 6.3495689380394955e+00 0 0 0
868 1 2.8879236025186406e-01 1.3081980897657617e+00 6.1664277381600243e+00 0 1 0
617 1 6.6490720979275384e+00 4.6916377365567801e+00 8.0765105211795181e+00 0 0 0
1171 1 9.6137110456875057e+00 3.1811788210867311e+00 5.5640944717134477e+00 0 0 0
1069 1 3.9303621276464900e+00 1.4115151736900480e+00 5.1791881154924377e+00 0 0 0
2986 1 8.8476787894750764e-01 7.9115482288595862e-01 5.3153419934470358e+00 1 0 0
3545 2 1.8519331059784399e+00 9.9341900965475471e-01 5.7609893249716961e+00 0 1 0
199 1 1.1150660926325182e+00 7.4584535196092683e-01 6.3145631239332793e+00 0 0 0
4220 2 9.1588585136594070e+00 1.6336930365219788e+00 7.3894466914052801e+00 0 0 -1
56 1 4.3192039982798569e+00 1.6749386729907700e+00 9.5941606778848154e+00 0 0 -1
1628 1 8.9993096881673260e+00 4.5782856491398931e+00 8.1220307642834264e+00 0 0 0
706 1 2.6033608227884604e+00 6.2261776179539652e-01 5.9098639353444069e+00 0 0 0
1913 1 4.9609109949116199e+00 9.3844886529774896e-01 4.8568366235105946e+00 0 1 0
3513 2 3.0162593683745031e+00 1.3115006813105856e+00 5.5472915195179331e+00 0 0 0
842 1 3.2503899711959168e+00 6.4102296658319591e-01 5.0139138749920935e+00 0 1 0
913 1 3.5979451798487680e+00 1.0401979842430935e+00 6.2256021373695933e+00 0 1 0
517 1 5.6864253653152508e+00 4.7074493449933206e+00 9.1595952901641482e+00 0 0 0
1904 1 9.0610741820400076e+00 1.8899808828189357e+00 5.5618791237193657e+00 0 1 0
3611 2 5.1365269032563647e+00 3.7356447951884908e-01 5.4751473753267090e+00 0 0 1
3752 2 4.7645106734722313e+00 1.3553383732503015e+00 5.6812098720429383e+00 0 0 0
526 1 4.1742632226183982e+00 4.9534389274528545e-01 5.5659249424953172e+00 0 0 -1
1080 1 4.8467689927521267e+00 7.1086125187387261e-01 6.2770086632794477e+00 0 0 0
1514 1 7.1137229765295649e+00 3.0416138514225208e+00 8.7924170998857871e+00 0 0 -1
1128 1 5.6465271725268620e+00 1.0280957996672959e+00 5.6368116310443108e+00 0 0 1
724 1 6.5317097417710670e+00 1.4659985407772383e-01 5.4422585705662785e+00 0 1 0
2053 1 9.8027707233727384e+00 2.2841488976422442e+00 6.2837536628199500e+00 0 0 0
1683 1 6.5244733558105166e+00 6.8663579417728460e-01 6.3840156074359200e+00 0 0 0
1199 1 6.6466692017506555e+00 1.1596902394605990e+00 5.2094844331721726e+00 0 1 0
3749 2 8.8498073279355189e+00 3.7056013670950811e+00 8.3229038921048666e+00 0 0 0
4122 2 7.2517563020936340e+00 1.5028570015428389e+00 5.8060957400188498e+00 0 0 0
1349 1 7.3901904272885437e+00 6.1314929964845988e-01 5.7903738582313409e+00 0 1 0
889 1 8.0931380395364094e+00 1.1370182081262057e+00 5.2201223567596795e+00 0 1 0
1557 1 1.0061839279568272e+01 4.4221531149233870e+00 8.0868191335294330e+00 0 0 0
1654 1 8.2179194695699156e+00 1.0073579044854664e+00 6.2211011993513488e+00 0 0 0
1907 1 8.7697940874764271e+00 6.9936372642240466e-02 6.6654853080172192e+00 0 1 0
250 1 3.9305814468729472e-01 8.4124792698109380e-02 5.8991568785004107e+00 0 1 -1
891 1 3.0532646311668179e+00 1.5568041187668574e-01 6.7539609534812692e+00 0 1 0
134 1 9.1648168364237526e-01 3.0452176296637745e+00 6.1078571021959345e+00 0 0 0
1021 1 8.8332127132422293e+00 3.1754952304248882e+00 9.3677688633644500e+00 0 0 0
1566 1 7.3270756255991421e+00 3.9697406444269889e+00 8.3103628015084059e+00 0 0 0
110 1 1.2756795872577913e+00 1.6895704720064542e+00 5.8616472056388025e+00 0 0 -1
26 1 9.2633474540416105e-01 2.6175244672232867e+00 5.2083329627170167e+00 0 0 0
695 1 2.3385101152088952e+00 1.6458549622844552e+00 5.9816786173662528e+00 0 0 0
602 1 2.0685657170730414e+00 2.2436975067873606e+00 5.1964878694292658e+00 0 0 0
2586 1 1.8078324040762421e+00 2.5362986986579008e+00 6.3049581454755979e+00 1 0 0
4302 2 2.4931311959344158e+00 2.5985630899731111e+00 5.8853268574365067e+00 1 1 0
1180 1 3.3764474599046066e+00 2.1014751970788259e+00 5.8606917768124447e+00 0 0 0
1482 1 3.8902452423102574e+00 2.6807480131673920e+00 5.1831779889785103e+00 0 0 0
370 1 3.5074415946090931e+00 1.5180393453665383e-01 8.1244695959407007e+00 0 1 0
675 1 3.5234741736542037e+00 3.2067806779834980e+00 6.0974294610232587e+00 0 0 0
676 1 2.9139167021432635e+00 3.0225577359292193e+00 5.2519104495127538e+00 0 0 0
1114 1 4.8387951195878793e+00 2.0636177477597313e+00 5.2697322375786184e+00 0 0 0
1187 1 5.3590758295951062e+00 1.9250526458560702e+00 6.1494163517966340e+00 0 0 0
659 1 4.5158627805665406e+00 2.7923560522765603e+00 5.9837215596599203e+00 0 0 0
3713 2 5.2452146256519763e+00 2.6941946479081014e+00 5.6032679920322783e+00 0 0 0
698 1 4.2773765949691285e+00 1.7995956704448040e+00 6.2887765387074355e+00 0 0 0
1177 1 5.9640649360768112e+00 2.0661677687817765e+00 5.2308532685137044e+00 0 0 0
1853 1 6.4735468615512035e+00 1.7232237471394831e+00 6.1038607453279567e+00 0 1 1
3123 1 6.3479179508153125e+00 2.7329878788600421e+00 5.9684738684040779e+00 1 0 0
3577 2 7.1561359978101295e+00 2.2844354832324854e+00 6.1966894313087648e+00 0 0 -1
1676 1 7.0950593561878330e+00 2.1984885195212014e+00 5.3562956414649268e+00 0 0 0
1647 1 7.9885654806699540e+00 1.9206304083834549e+00 5.9070252192843977e+00 0 0 0
2044 1 8.3011593945634132e+00 1.1282301038983637e-01 5.5041577408814932e+00 0 0 0
592 1 1.4452837996320020e+00 2.7534489115473293e-01 8.6446484967824109e+00 0 0 -1
1153 1 7.8864379581297213e+00 2.6363691551808741e+00 6.6310232491679049e+00 0 0 0
160 1 2.3451467197798079e+00 4.5353689387935088e+00 5.8021788105300285e+00 0 0 0
998 1 8.3332077651236371e+00 4.7209146645076325e+00 6.5840512116577079e+00 0 0 0
2453 1 7.9190646382103136e-01 3.6806941143061169e+00 5.1086611221361133e+00 1 0 0
1498 1 5.6344402594729788e+00 5.7203778645358999e-02 6.1519412505527633e+00 0 0 0
1688 1 9.5709745904367693e+00 4.4959716259847848e+00 5.2833547477910550e+00 0 0 0
1079 1 1.8299323026704526e+00 3.2276733326606717e+00 5.3513812753231456e+00 0 0 0
223 1 1.4557260615972605e+00 4.0414023100436474e+00 5.8394151899393210e+00 0 0 0
1133 1 2.4587880545429051e+00 3.4469611084873737e+00 6.1362418988025826e+00 0 0 0
574 1 3.9713371070288481e+00 3.6549294023210663e+00 4.9476341928752241e+00 0 0 0
1115 1 8.8602860570437798e+00 3.9608763151000188e+00 5.9531875102662184e+00 0 0 0
601 1 3.4167695515484606e+00 4.1430437528583193e+00 5.6569039551767313e+00 0 0 0
1093 1 4.8684858320060291e+00 3.8219422202525117e+00 5.6758869612962330e+00 0 0 0
625 1 1.9614902974626129e+00 1.3976622659309004e+00 9.4242476573137210e+00 0 0 0
2088 1 5.7190176898924978e+00 3.3393663312451354e+00 5.3509804603741964e+00 0 0 0
127 1 5.4478188989685776e+00 3.2415441317380158e+00 6.3889779665921962e+00 0 0 0
784 1 8.6826666099868230e+00 1.0158242469284258e+00 7.1621419606692669e+00 0 1 0
1085 1 6.7726453129118243e+00 3.7022205350715871e+00 5.3526841164538945e+00 0 0 0
3016 1 6.2346109177076237e+00 4.0415538701997553e+00 6.2739717580735412e+00 1 0 0
1184 1 7.2646058742448636e+00 4.3122833705314561e+00 6.3062434576796509e+00 0 0 0
1030 1 7.5963181145878371e+00 3.1041937096685119e+00 5.6992480683903128e+00 0 0 0
1504 1 7.9072764129836095e+00 4.1226940210014229e+00 5.5081772858400928e+00 0 0 0
2071 1 9.2145861516346024e+00 4.2795284294817604e+00 7.0824511608443483e+00 0 0 0
3510 2 8.0681841318674596e+00 4.3279569738607035e+00 8.4415447935886743e+00 0 0 0