LAMMPS data file via write_data, version 12 Dec 2018, timestep = 108240

4320 atoms
2 atom types

0.0000000000000000e+00 1.9309999999999999e+01 xlo xhi
0.0000000000000000e+00 1.9309999999999999e+01 ylo yhi
0.0000000000000000e+00 9.6549999999999994e+00 zlo zhi
1.5834200000000003e+00 0.0000000000000000e+00 0.0000000000000000e+00 xy xz yz

Masses

1 1
2 1

Atoms # atomic

4263 2 6.9767961337185662e+00 4.2255370796322458e+00 2.5157150626781681e+00 1 0 0
2084 1 9.6270758794675135e+00 4.3010088421351647e+00 9.1329645272810137e-02 0 0 1
2946 1 9.3620880155488919e+00 5.9141158941373806e-01 8.5318986430336330e-01 0 0 0
1218 1 1.2344882536469619e+00 7.9146673526500155e-01 1.0924619809362328e+00 0 1 0
3622 2 2.0922095804790759e+00 7.8773811191317500e-01 6.3278870032050294e-01 0 0 1
1785 1 8.3362459092553216e+00 2.8423279169450233e-01 2.3568627506249671e+00 0 1 0
967 1 1.1605682694726016e+00 1.5689203332409281e+00 4.4919457732185980e-01 0 0 0
3205 1 2.0795073884829915e+00 1.6694962352758453e+00 9.4773043518536226e-01 1 1 0
962 1 3.4416633874611193e+00 4.7826363082843821e+00 2.0245810154228892e+00 0 0 0
851 1 3.0308510298022222e+00 9.1976611358275318e-01 5.8988468039453767e-01 0 1 0
253 1 3.4974841695871453e+00 3.8165289345848585e-01 1.3415060672329111e+00 0 1 0
1190 1 3.8659470284291246e+00 1.3645440459771887e+00 1.1638553428164204e+00 0 0 1
3918 2 3.8093658812178002e+00 1.4234886125394921e+00 3.5703146676541414e-01 0 1 0
30 1 6.8623330140740721e+00 4.0438698288469066e+00 3.9948012459060158e+00 0 0 0
1127 1 4.0637493503030058e+00 6.2800032219799617e-01 3.7149960340000748e-01 0 0 1
1554 1 4.8680396799822763e+00 1.0994221166239873e+00 8.2406635368187076e-01 0 0 1
4116 2 4.3511593953585965e+00 7.9073549938258658e-01 1.5669979346423670e+00 1 0 -1
95 1 5.3440861825797246e+00 4.6461396887084000e-01 1.6097930021582607e+00 0 0 0
2174 1 5.7526920074008849e+00 5.4655813266093478e-01 6.2579284644215516e-01 0 1 0
2064 1 1.8570332871766229e+00 2.4296617506525897e+00 1.2687178206409466e-01 1 0 1
870 1 5.8879162568043526e+00 1.4557442710684652e+00 1.2921641398254196e+00 0 1 1
1798 1 6.7491250068912878e+00 9.1793992063331764e-01 9.5249928337159795e-01 0 1 0
17 1 1.5503175627454093e+00 3.2443197147154337e-02 1.8518060924197934e+00 0 0 0
986 1 1.8798343018197921e+00 4.0537786337888422e+00 4.6661379079211969e+00 0 0 0
1615 1 7.5152070213961588e+00 1.6102545432713933e+00 9.7980272101061561e-01 0 0 1
1678 1 9.7794898401848602e+00 3.6258539416259943e+00 2.8433924230142784e+00 0 0 1
3793 2 8.1674886112516631e+00 2.4612087222471740e-01 1.7040043617274714e-01 0 1 0
767 1 8.4427836678808212e+00 5.1218346157591266e-01 1.3125591328262376e+00 0 1 0
1359 1 8.2947364774184802e+00 1.1172474427301557e+00 4.8022242062600484e-01 0 1 1
3468 2 8.5441973671266638e+00 1.6716471901669807e+00 1.1151536741801058e+00 -1 0 1
465 1 3.3031725887012542e-01 2.0324068399697013e+00 7.6564569392593684e-01 0 1 1
1470 1 9.7734751476418822e+00 3.3360534879355859e+00 1.4454508984420482e+00 0 0 0
3587 2 8.3795076527791270e+00 4.7551825909531100e+00 2.2405522517334022e+00 0 0 0
708 1 7.0591368956016787e-01 2.7046799674096942e+00 1.4958145014013566e+00 0 0 1
115 1 2.4896757654369108e+00 3.3549020234367333e-01 1.2502252611125910e+00 0 0 0
3478 2 1.1047017258289595e+00 2.4771950233811313e+00 6.5997275981531378e-01 0 0 -1
254 1 1.7125966518094062e+00 2.7290514854810257e+00 1.3037772594149863e+00 0 1 0
2960 1 1.1965640056948490e+00 1.7659862450232291e+00 1.4838126747135376e+00 1 0 0
1160 1 9.2168478351945335e+00 1.3898648712931780e+00 1.5771127224471468e+00 0 0 0
3599 2 2.2445649471683007e+00 3.2423784088519700e+00 8.5213903150630721e-01 0 0 0
622 1 2.7146362476326829e+00 2.5812761631920154e+00 6.7717552788206392e-01 0 0 1
3750 2 2.9555699938129880e+00 1.7700845669331950e+00 8.8185458761911040e-01 0 0 1
34 1 3.9592297141911241e+00 2.2748348260343971e+00 5.8995550870989311e-01 0 0 0
1065 1 3.3160540876786877e+00 2.4031594465816379e+00 1.5604262242005758e+00 0 0 0
968 1 5.0995532422635108e+00 2.2276229767188682e+00 6.5701021902083290e-01 0 0 1
3708 2 4.5985803375427530e+00 1.8641106747330960e+00 1.2802869221322304e+00 0 0 0
1166 1 4.5968750863796224e+00 2.8287079551731642e+00 1.3467582204387902e+00 0 0 1
3768 2 4.9226499337547471e+00 3.0504411961900995e+00 5.3387663668491847e-01 0 1 0
3676 2 9.4247749359588529e+00 1.8517024286650170e+00 2.3415719073283596e+00 0 1 1
3757 2 6.6955675148892038e+00 1.8144033339571928e+00 1.0876773536584972e+00 0 0 1
1764 1 6.0798841339630592e+00 2.5048712995860085e+00 7.7465258723939234e-01 0 1 0
1617 1 7.2064399876105911e+00 2.5764514467342519e+00 7.4014527483687464e-01 0 0 1
2731 1 6.6715887318500006e-02 1.8933974168100012e-01 3.1045332182452325e+00 1 1 0
1499 1 8.2797075870903019e+00 2.1411437272290876e+00 4.0446555806949652e-01 0 0 1
1455 1 9.5737044357776266e+00 3.1318752548579432e-01 2.6706990528801007e+00 0 0 0
497 1 9.9809745336849476e-01 3.7394679387200709e+00 1.3322288409497667e+00 0 0 0
4042 2 4.1255603976319586e+00 6.7996235317864795e-01 4.7114072502089641e+00 0 1 0
1117 1 5.1571551075393023e+00 3.8366116774782508e+00 1.7472171450047005e-01 0 0 1
4177 2 5.8866564681977147e+00 1.6382194788575455e+00 4.7671164044626693e+00 0 1 0
1484 1 7.2605990338080826e+00 2.0184354269826438e-01 1.9145541021331736e+00 0 0 0
3085 1 1.3656782609647937e+00 3.2872855505722525e+00 4.4976812392939969e-01 1 0 1
3799 2 1.3886114392110174e+00 4.3851002353234616e+00 7.0650594976739678e-01 0 1 0
171 1 2.0231051492286021e+00 3.9901862532911276e+00 1.0674335717016463e+00 0 0 1
1513 1 7.7527714163043440e+00 4.5088909661135999e+00 7.5449394267061731e-01 0 0 0
952 1 9.1328133719443851e+00 2.4173091677925109e+00 1.2968889802811630e+00 0 0 0
656 1 4.0773630523882920e+00 3.3704285084919379e+00 5.2620540170980390e-01 0 0 1
2996 1 3.7882495648671943e+00 4.4903726411084754e+00 1.1287173521750979e+00 1 0 0
717 1 3.0714130927621843e+00 3.7254903002900845e+00 7.5074631578268869e-01 0 0 1
94 1 2.5927762780880177e+00 2.4601323768913490e-02 3.3781704920258422e+00 0 0 0
668 1 3.6757065491329617e+00 3.3619762719261952e+00 1.5547482324594788e+00 0 0 0
2201 1 9.3561589377974670e+00 4.2283746535468483e+00 1.1703329289148061e+00 0 1 0
1402 1 6.6020308860821775e+00 3.0668673001462859e-01 7.0158865173565788e-02 0 1 1
1019 1 5.6919203330029982e+00 3.3897077386885948e+00 9.7684006045697702e-01 0 0 0
1198 1 4.7669050845950895e+00 3.8599756397244658e+00 1.1685901520383806e+00 0 1 0
3627 2 5.5198628932828075e+00 4.2926954915296225e+00 8.1658202665367108e-01 0 0 1
1870 1 9.2875429963899165e+00 1.5223637355421173e+00 5.0270042126961922e-01 0 1 1
3503 2 9.1922845533809099e+00 2.4467342344600893e+00 3.9133909505735867e+00 -1 0 2
567 1 6.7776628720573040e+00 3.4200489573843393e+00 1.1263168197140634e+00 0 0 0
669 1 6.2474019632608488e+00 4.2368317377995490e+00 1.3918704082162365e+00 0 0 1
3865 2 6.8372586716229762e+00 4.3191271326383287e+00 7.9645679667878999e-01 0 0 0
1051 1 6.1970071140588452e+00 3.8497550614597533e+00 2.7481596612020576e-01 0 0 0
2098 1 7.2156261248879794e+00 3.7100380414840153e+00 2.9066803292663940e-01 0 0 1
3588 2 3.2579445078881966e+00 4.0416367713332901e+00 3.2839686773251189e+00 0 0 0
529 1 2.9389136556025410e+00 4.7773636632823528e+00 2.8849645948020926e+00 0 0 0
503 1 8.9054712103829718e+00 3.2484170582145366e+00 7.6806159605228730e-01 0 0 0
1506 1 7.8720384677186876e+00 3.4950271533226682e+00 1.1219235406357726e+00 0 0 0
1564 1 8.6138913078877426e+00 4.1218600805560071e+00 3.5892002312384963e-01 0 0 1
1572 1 8.4567937239452480e+00 4.2852796150400252e+00 1.5196608897447765e+00 0 0 1
3602 2 8.1695167629246175e+00 1.4411981260743362e-01 3.9886044799537879e+00 0 0 0
180 1 6.8876277998798985e-01 4.1597494777017445e+00 3.7471937332944022e-01 0 0 1
513 1 5.1921173520204968e+00 4.5023807842797154e+00 4.6351014904862051e+00 0 0 0
2108 1 7.7318296801447062e+00 3.5255320529170864e+00 4.6350775357901641e+00 0 0 0
140 1 8.6342376105142737e-01 8.2895742558990904e-01 2.1520471310381670e+00 0 0 0
135 1 4.8653823166792803e-01 1.7100384315835115e+00 2.7166653283071671e+00 0 0 1
520 1 1.8966662533070606e+00 9.7354584927692456e-01 1.9304221869989926e+00 0 0 0
3167 1 9.4016494836937137e-01 8.0110658866449791e-01 3.1829724073972643e+00 1 0 1
715 1 2.0135963982616718e+00 7.8594902161201852e-01 2.9594473466178428e+00 0 0 0
242 1 4.4208183901051692e+00 3.2033829523515023e-02 1.1582836193493709e+00 0 0 1
1000 1 2.8831988954478498e+00 1.3028939547695932e+00 1.6181932974393263e+00 0 0 0
4214 2 2.5428438087632568e+00 1.3027182876870369e+00 2.4591885528949340e+00 1 0 0
817 1 2.7568737745525960e+00 3.9464937462066413e-01 2.2913134503794246e+00 0 1 0
159 1 3.7221993567396332e+00 9.0089599370246243e-01 2.1931698104608452e+00 0 0 0
992 1 3.1023920622623664e+00 1.1034549211437550e+00 3.0703361699657719e+00 0 0 0
966 1 3.6293394782270121e+00 1.8386743686202545e-01 3.0342818141477310e+00 0 0 0
1134 1 4.2481081212613159e+00 1.5570878103792589e+00 3.0342762154314293e+00 0 0 1
1040 1 5.0118674629223650e+00 1.4106419532602263e+00 1.9496555741752664e+00 0 0 0
1358 1 4.6587849706251427e+00 6.4648659761245886e-01 2.5648433475811379e+00 0 1 1
4110 2 8.5892301210046360e-02 3.3121217010287063e-01 3.9745960176713457e+00 1 0 0
3878 2 5.5368343208248012e+00 8.1019018767790185e-01 2.3932196314324163e+00 0 0 1
631 1 5.2813611655776311e+00 1.3598808785775576e+00 3.1091401031959309e+00 0 0 0
3756 2 7.5263875751637759e+00 8.8830546868902549e-01 1.3384383315413522e+00 0 0 1
1357 1 6.3346235612272315e+00 7.6927882132886605e-01 2.0401881548881229e+00 0 1 1
575 1 6.3893294890226935e+00 9.9520145895212964e-01 3.0403782741789320e+00 0 0 0
722 1 7.0370289402306634e+00 1.4374131255925109e+00 1.8361068491695880e+00 0 1 0
1147 1 7.3462772053140082e+00 9.2510174057796535e-01 2.6545108609937635e+00 0 0 1
1351 1 8.1716100362303550e+00 1.3512843656998661e+00 1.8752327340252513e+00 0 1 0
3775 2 8.2235301369265645e+00 7.4179677432451319e-01 3.0974209391094947e+00 0 1 0
1472 1 9.9393873008231122e+00 4.2736575426033800e+00 1.9741727344224784e+00 0 0 0
3688 2 3.5602897944445324e+00 3.8434668921517718e+00 4.7091071023708002e+00 0 1 0
3631 2 4.6931661101218340e+00 4.7450988541474963e+00 9.3918157133504365e-01 0 0 1
4041 2 9.5608452486564381e+00 4.2537908798892965e-01 3.5879524406664589e+00 0 1 0
1098 1 9.2070279217113473e+00 2.4535810814085441e+00 1.3225704984360986e-02 0 0 1
4049 2 7.2513287021819450e-01 2.8092591645650442e+00 2.9020618968021674e+00 1 1 1
657 1 3.7677310487217824e-01 3.1182127463681857e+00 5.7216698040777314e-01 0 0 1
431 1 1.4621191210790296e+00 1.5609329583936942e+00 2.6617907472851283e+00 0 1 1
558 1 2.2459919662170504e+00 2.0067419891227547e+00 2.0196276315792390e+00 0 0 0
2962 1 1.2624866566028410e+00 2.5406535016788387e+00 2.3239606926961658e+00 1 0 0
83 1 2.3623920062411714e+00 2.8317070991068207e+00 2.6249677376906440e+00 0 0 0
166 1 2.2835917538702679e+00 1.8002863795550716e+00 3.1679298738570054e+00 0 0 0
1376 1 3.1477749793413436e+00 1.9884495187571307e+00 2.5141220668837017e+00 0 1 0
3606 2 3.2311256814560920e+00 2.9295134442318815e+00 2.3238147039867481e+00 0 0 0
2941 1 4.1754672446103012e+00 2.9885771660322886e+00 2.4032695841502787e+00 1 0 0
3608 2 3.8130894779210927e+00 2.3181289817026700e+00 2.9041220157682623e+00 0 0 0
3128 1 3.2837552290160672e+00 3.1120326487386762e+00 3.2250876902675838e+00 1 0 0
555 1 4.1942361250052471e+00 2.0229597502218848e+00 2.0535450828424833e+00 0 0 0
505 1 5.4506749662609177e+00 2.3861065594319602e+00 1.6509532551735278e+00 0 0 0
663 1 4.9758212372165609e+00 2.3398733006196113e+00 2.6700403042062688e+00 0 0 0
3686 2 5.0061693741413071e+00 2.9989873086749199e+00 2.0606539543669555e+00 0 1 0
1446 1 5.8084643382458614e+00 2.8403884192996820e+00 2.5068309927165435e+00 0 0 0
568 1 6.0120093175882996e+00 1.7351164419640588e+00 2.2925218766353579e+00 0 0 0
3703 2 6.0443410719963122e+00 3.0861337432912714e+00 1.6792938146597565e+00 0 0 0
3533 2 6.8404043617015269e+00 1.6764053487981279e+00 2.6578265320836065e+00 0 1 0
1462 1 6.6803505581658849e+00 2.4523268813906656e+00 1.7258548423342366e+00 0 0 0
1511 1 6.7911115936781714e+00 2.5969106230324370e+00 2.7119327827792534e+00 0 0 0
1561 1 7.4381963324043436e+00 3.1263567465227813e+00 1.9842948353839376e+00 0 0 0
2197 1 8.0972653267773715e+00 1.5296200806051137e+00 3.0085457361989025e+00 0 1 0
566 1 7.5612974476667825e+00 2.1286617769298246e+00 2.3681613958730776e+00 0 0 0
1437 1 8.0603519606810803e+00 2.4801909117271066e+00 1.4020602073731399e+00 0 0 0
2101 1 8.6043304163795931e+00 2.2253821774141174e+00 2.2692150386820380e+00 0 0 1
3946 2 8.0754396754673419e+00 2.8858847207537464e+00 2.4247017123706867e+00 0 1 0
1721 1 7.7624848145480181e+00 2.7220686687008340e+00 3.2267817492479085e+00 0 1 0
2421 1 8.7714196991410542e+00 3.1673553455827461e+00 2.9520890789212237e+00 0 0 0
1625 1 3.8853474129507073e+00 4.6961559773411308e+00 4.5434552211794337e+00 0 0 0
162 1 7.1026161600113258e-01 3.5219363838677840e+00 2.3337002737636729e+00 0 0 0
1191 1 5.8356455451227172e+00 4.5308945299273855e+00 3.7039890528111652e+00 0 0 0
1696 1 8.3925333638758222e+00 4.3724593231737803e+00 4.4374031791024944e+00 0 0 0
492 1 1.0164748008613549e+00 4.3345855287250368e+00 3.0531502429945463e+00 0 0 0
2976 1 1.2717105079769064e+00 4.4075252082642260e+00 2.0152700132963917e+00 1 0 0
615 1 2.6315588265001728e+00 3.2981932895718762e+00 1.6596756328317208e+00 0 0 1
3028 1 1.7011696757698909e+00 3.4564911391313173e+00 2.1354060936661794e+00 1 0 0
3610 2 1.7493477469964507e+00 4.1007227463464346e+00 2.7066207949878609e+00 0 0 0
636 1 2.4222864976124621e+00 4.2815492521425575e+00 2.0678840126870415e+00 0 0 1
2965 1 1.4578279478952243e+00 3.3742712630550158e+00 3.1852937896739890e+00 1 0 0
1711 1 9.8488856554818085e+00 3.2527523284924769e+00 3.6998440416917372e-01 0 1 0
1039 1 4.4451805698642701e+00 4.0535293314547358e+00 2.2028491413970244e+00 0 0 0
4238 2 3.1121028774326409e+00 4.0995267641655859e+00 1.5911040804827721e+00 1 0 0
3619 2 4.1184350143618609e+00 3.6095513634687109e+00 3.0016695126728350e+00 0 0 1
586 1 3.2999916765241077e+00 3.8272869010668744e+00 2.4533872805951473e+00 0 0 0
1022 1 3.9140653524449798e+00 4.5516550907269124e+00 3.0122109420433341e+00 0 0 -1
1682 1 7.9924790084317614e+00 3.6801028570837784e+00 3.5874637916759027e+00 0 0 0
1440 1 5.0606843042992100e+00 3.4831953823328479e+00 2.8792329071546052e+00 0 0 0
664 1 5.4779552146352701e+00 3.6794531807773896e+00 1.9507969454750156e+00 0 0 0
550 1 5.1962979153893816e+00 4.5557359542030467e+00 2.7443916997413846e+00 0 0 0
655 1 6.1783130546679264e+00 4.5826344962261292e+00 2.3457386333114969e+00 0 0 1
994 1 6.0354750488223168e+00 3.6977025852468910e+00 3.1665620227742584e+00 0 0 0
1428 1 7.3291277592135957e+00 4.1558940257751642e+00 1.7563791756745597e+00 0 0 0
1457 1 9.9393018048592747e+00 4.6178665657615916e+00 3.4351538129750874e+00 0 0 0
534 1 7.1300222858117328e+00 3.5581453049879026e+00 3.0564041781289837e+00 0 0 0
1271 1 6.5299475441054984e+00 3.5622788517045683e+00 2.1983222013449080e+00 0 1 0
2545 1 3.1061344262246182e-01 2.9615337928013408e+00 4.4497806581841646e+00 1 0 0
3838 2 7.4943382620188457e+00 4.3491217627031080e+00 3.2253628984853173e+00 0 0 0
1090 1 5.8341759190126297e+00 4.5829145302829338e-01 4.7511442361749046e+00 0 0 0
1072 1 8.6650805085204574e+00 3.2260303134362602e+00 1.8237243271680388e+00 0 0 0
1535 1 8.0928011195277261e+00 3.8313188844762340e+00 2.5258873160750741e+00 0 0 0
3964 2 9.1916513892983822e+00 3.7402713717861866e+00 2.2559228985197559e+00 0 1 0
1858 1 9.1837224005379596e+00 1.7329000625185176e+00 4.4962831457379568e+00 0 1 0
1526 1 5.1406140160928615e+00 3.0069507326848690e+00 4.7806051285200271e+00 0 0 0
3772 2 3.2535577706154348e+00 1.0005910376806469e-01 5.5031755496864188e-01 0 1 1
3516 2 8.3093361417499373e-02 8.9820821876624402e-01 2.6897619263349268e+00 0 0 0
689 1 6.8573550673401229e-01 8.4143100784840674e-01 4.2614750260464955e+00 0 0 0
4299 2 7.6175864417701189e-01 1.6575617651469179e+00 3.5177822792861817e+00 1 1 1
599 1 4.0074882707489348e+00 1.7803687416091518e-01 4.0271563687041025e+00 0 0 0
3121 1 9.8219682221385423e+00 4.0615775097322855e+00 4.3381486685405353e+00 0 0 0
194 1 1.8194903192649725e+00 5.2500923351016504e-01 4.5929395077072925e+00 0 0 0
3855 2 1.4214994095262083e+00 5.0684251530306013e-01 3.8368140269113331e+00 0 0 0
3192 1 1.4705521774723604e+00 1.3857398889180474e+00 3.8141022327683767e+00 1 0 0
1783 1 5.5093220846205009e+00 1.8048988881568639e-01 2.9648278425307115e+00 0 1 0
1880 1 9.1300524529693394e+00 4.4593979009934328e+00 2.7029916372081026e+00 0 0 0
1584 1 2.4766638361297031e+00 1.0307640882008615e+00 3.9546693907798485e+00 0 0 0
3464 2 3.2228874188189742e+00 5.6895413309496057e-01 3.7412303094868604e+00 0 0 -1
652 1 3.4253002645654473e+00 1.1943014630338669e+00 4.3251023088378258e+00 0 0 0
3925 2 4.1171269465082416e-01 4.2132437582608802e+00 1.8278060591847909e+00 1 1 -1
991 1 8.9658435835863060e+00 1.1881697979369545e+00 2.5975935393256555e+00 0 0 0
4264 2 4.3063827291596244e+00 6.3745434174088589e-01 3.3302768971735555e+00 1 0 1
1054 1 5.0738674343458126e+00 3.0812156259962847e-01 3.8261881284841137e+00 0 0 0
481 1 4.5299392858411967e+00 1.1947845965222719e+00 3.9961712330988619e+00 0 0 0
235 1 5.7816000021770533e+00 1.2100767637535434e+00 4.0241834129882283e+00 0 0 0
3764 2 9.0884878928271249e+00 5.4833611038869523e-01 1.9485056919129278e+00 0 1 -1
3856 2 7.0162436072917647e+00 4.7290025657408197e-01 3.4337416900718623e+00 0 0 0
2360 1 6.7712664154374869e+00 8.7976074672221904e-01 4.3266586892234837e+00 0 1 0
3040 1 4.2535496735575853e+00 4.3453905659905585e+00 1.8227712736782900e-01 1 0 0
597 1 3.1634169114657107e-01 7.5080652385659041e-01 3.4169212503059088e-01 0 0 0
1950 1 8.9362289976163858e+00 1.0705240159236780e+00 3.5991126675257008e+00 0 0 0
4029 2 8.4075503743744360e+00 1.0738827480301569e+00 4.3456922753656579e+00 0 1 0
580 1 7.7185401869724846e+00 9.4206363443821328e-01 3.7779997461925880e+00 0 0 0
878 1 8.8842810882964045e+00 4.3312774094518253e-01 4.5890573386862652e+00 0 1 0
987 1 6.6056692957915564e+00 1.7747780902773418e+00 1.3829448559308982e-01 0 0 0
1425 1 9.6623033182799443e+00 3.1855126654883583e+00 3.8751413962926984e+00 0 1 0
1458 1 7.4445123555469825e+00 1.8509894092746659e-01 7.7484895879588056e-01 0 0 0
1242 1 5.6141424358499865e+00 1.4979879218578736e+00 2.2730928918401738e-01 0 1 0
906 1 9.4675969064764161e+00 2.7786492040790693e+00 2.2520443289615790e+00 0 1 0
508 1 6.7247953687390813e+00 4.7000107317398765e+00 3.1430244970992911e+00 0 0 0
3490 2 8.7046177835010408e-01 2.9648768748280601e+00 3.8487828535165320e+00 0 0 0
2562 1 8.4463656534660747e-01 2.1244713262804962e+00 4.2421710268537236e+00 1 0 -1
3080 1 1.3406353259546782e+00 2.2984670264340372e+00 3.3539560564291269e+00 1 0 0
3480 2 1.7281011455853621e+00 2.0845147598485787e+00 4.1368114321886740e+00 0 0 0
700 1 1.5234471162815448e+00 2.9362879391108527e+00 4.3886144887565717e+00 0 0 0
288 1 2.2487540656630802e+00 2.7732292474337132e+00 3.6166692702172010e+00 0 1 0
4208 2 2.4017414566342685e+00 2.8932825506036872e+00 4.6108618600191331e+00 1 0 0
543 1 2.5840310033906970e+00 2.0042220066965108e+00 4.2321927358984786e+00 0 0 0
1165 1 3.4024723097873402e+00 2.0244561396816239e+00 3.6437289299040603e+00 0 0 0
802 1 3.4219168530523172e+00 2.9114931820810992e+00 4.2848126577504884e+00 0 1 0
572 1 4.2614953738829335e+00 2.7719734750195228e+00 3.4761136498180534e+00 0 0 0
1167 1 4.1791536465115859e+00 2.1163365606091307e+00 4.3642743910129047e+00 0 0 0
237 1 2.9280179247872695e-01 1.0804612924495880e+00 1.3393064188364789e+00 0 0 0
3719 2 4.3290096367743134e+00 2.9833871091617481e+00 4.3446124201104581e+00 0 0 -1
4119 2 4.8256291871976122e+00 2.0799195227498153e+00 3.5858694360187715e+00 0 0 0
1007 1 5.2236188020865875e+00 2.0290536301681308e+00 4.3336451893938293e+00 0 0 0
2164 1 5.3962635940986479e+00 2.7825084828543925e+00 3.6219256418363068e+00 0 0 1
3884 2 5.9262157630213546e+00 2.7316117988354578e+00 4.3517603456391285e+00 0 0 1
1062 1 6.0372101042496631e+00 2.1112845271440843e+00 3.2734288100621329e+00 0 0 0
1194 1 7.1089939691561277e+00 1.8645807072254206e+00 3.4808399658899161e+00 0 1 0
814 1 6.5379738897322248e+00 2.0759204064397054e+00 4.4075594292809530e+00 0 1 0
1081 1 6.5294154686085326e+00 2.9339037209849295e+00 3.7231686487939410e+00 0 0 1
860 1 7.4840224509388324e+00 2.5979482306205650e+00 4.2168409427159661e+00 0 1 1
3460 2 9.6108628422743063e+00 2.8018726007503467e+00 3.1268445639260984e+00 -1 0 0
50 1 5.3370397214692007e+00 4.6447146924443610e+00 1.6593004698476355e+00 0 0 0
1071 1 7.5897666321199244e+00 1.6475275237730682e+00 4.6639635146969596e+00 0 0 -1
1573 1 8.2941659803159808e+00 1.9392959645263825e+00 3.9469577622418952e+00 0 0 0
537 1 8.5486583192564751e+00 2.9844238816131092e+00 3.9735421900566967e+00 0 0 0
1906 1 7.8290838071574198e+00 5.2569410834077579e-01 4.7318179480383034e+00 0 1 0
1042 1 2.4825910277372563e+00 4.5597653731423513e+00 1.0209381290494499e-01 0 0 0
114 1 1.0461846584261414e+00 3.8249499541726202e+00 4.1081025133626934e+00 0 0 0
124 1 5.8653860933442949e+00 3.5531210585218491e+00 4.2578694364926220e+00 0 0 0
177 1 2.4427959689263696e+00 3.7907507347034453e+00 3.1608223988524875e+00 0 0 0
1505 1 4.9043080295853914e+00 3.6135703948738795e+00 3.9097949619106478e+00 0 0 0
232 1 2.7854825452262721e+00 3.6910861553137226e+00 4.1355972209678553e+00 0 0 0
779 1 1.8433449190305424e+00 4.5158066728491644e+00 3.6414859103599055e+00 0 0 0
4148 2 1.8932644502463778e+00 3.6658593348692388e+00 3.8597417341180966e+00 1 0 0
4250 2 2.3723743493018326e+00 4.7006711699859878e+00 4.3023264594298150e+00 1 0 1
386 1 6.2166045343619203e+00 1.6469013348296052e-01 3.7865311241449917e+00 0 1 0
3127 1 3.8422471801629237e+00 3.8245314708800464e+00 3.8594513690374050e+00 1 0 0
2076 1 9.1159111160220583e+00 2.0875098233861351e+00 3.1991781474385972e+00 0 0 1
1622 1 9.0119634387143943e+00 3.9917275371438583e+00 3.6358099974836824e+00 0 0 0
691 1 4.7081432055704013e+00 4.6109442865799961e+00 3.6918423749439402e+00 0 0 0
559 1 3.1156678179764250e+00 4.5808790832487221e+00 3.8573337242476105e+00 0 0 0
905 1 2.1620591614095039e-01 2.4230398136616156e+00 3.4889247356323843e+00 0 1 0
3495 2 3.2636153470702411e-01 1.9419004082059639e+00 1.8128050387508914e+00 0 0 2
1621 1 8.2924802100379953e+00 4.6031092331703736e+00 3.2075466703097057e+00 0 0 0
4240 2 3.3235722907218799e+00 4.6320239125121736e+00 4.1918556756217834e-01 1 0 0
1488 1 7.0260534642706958e+00 4.7157056722526347e+00 4.1165703852074883e-03 0 0 0
1644 1 8.9317550895444153e+00 3.4812749560159073e+00 4.7945755846565001e+00 0 0 0
3844 2 1.9868608684331213e+00 4.8181038167398533e+00 1.5743441351062450e+00 0 0 0
4278 2 9.8129659447026829e-01 4.6795516299159434e+00 3.9636003456320550e+00 1 1 -1
536 1 3.4806312189425326e-01 3.4449492536294470e+00 3.3604975663803174e+00 0 0 0
21 1 3.0559070043473771e+00 1.8583643652951416e+00 2.7333796548097443e-02 0 0 0
887 1 2.9780877109641160e+00 7.8388180345487446e-02 4.3698871845378484e+00 0 1 0
1001 1 8.0985384064331125e+00 3.1439203138570258e+00 1.3586637129284235e-01 0 0 0
548 1 6.6624200984593704e+00 3.0562344647596911e+00 4.7560608111947991e+00 0 0 0
1029 1 7.3782004635386444e+00 1.0201738151597759e+00 3.8766593017101551e-02 0 0 0
970 1 6.2812446120282921e+00 4.5214397772602695e+00 4.7868941370955440e+00 0 0 0
581 1 2.3927642395025441e+00 3.4368255266741627e+00 3.2496547795490487e-02 0 0 0
10 1 1.2898321077185448e+00 5.8357418513519632e-01 2.9424398486459894e-02 0 0 1
574 1 4.3935908682799036e+00 3.8363365273401251e+00 4.7878513830352079e+00 0 0 0
57 1 1.4798459816200595e+00 1.4596496167641553e+00 4.8182648889848840e+00 0 0 0
3 1 1.8350827191703947e+00 7.1851822047359112e-02 5.5193823846939614e+00 0 0 -1
868 1 4.4419336374053175e-01 1.1316428185227239e+00 6.0577356623947587e+00 0 1 0
4300 2 8.1731390838016242e+00 1.8529323081746477e-01 6.2700451545540901e+00 1 1 0
1049 1 8.3767541601546416e+00 2.4290095772596243e+00 4.8607372719721633e+00 0 0 0
1069 1 4.0443191515263548e+00 1.5092471204956730e+00 5.2011416027660280e+00 0 0 0
2986 1 1.0167986721878086e+00 6.4474487168350791e-01 5.2613299502753872e+00 1 0 0
3545 2 1.8771190691730681e+00 9.2662133828804838e-01 5.4571544459752683e+00 0 1 0
199 1 1.3532993555710471e+00 5.7787729300198432e-01 6.2560070573778619e+00 0 0 0
4220 2 9.4695063953297378e+00 1.8792835440274442e+00 7.3897566553941578e+00 0 0 -1
3722 2 3.6459131342961553e+00 2.8862867323179187e-01 5.9788560473453565e+00 0 1 -1
370 1 3.5687088882687719e+00 2.4472466169179083e-01 8.3065880592101511e+00 0 1 0
706 1 2.5797605340099756e+00 6.9528754843935658e-01 5.8783095925271338e+00 0 0 0
914 1 4.3765318511705287e+00 1.9939004424171131e-01 9.0878424662269683e+00 0 1 0
3513 2 3.2216715421701130e+00 1.3100553664698340e+00 5.6196727082058624e+00 0 0 0
842 1 3.3919599829490270e+00 5.9225030536028844e-01 5.2128412068263641e+00 0 1 0
913 1 3.8302809043843227e+00 1.0885064653716350e+00 6.2577941942647115e+00 0 1 0
517 1 5.8955373692459112e+00 4.6450052477151802e+00 9.2013494164509844e+00 0 0 0
1904 1 9.2224829010836302e+00 1.9752554726208642e+00 5.5953440415155038e+00 0 1 0
3611 2 5.2674922655626384e+00 4.8347600128969997e-01 5.4319038354194173e+00 0 0 1
3752 2 4.7749467301669029e+00 1.3366138635919862e+00 5.6927030499046358e+00 0 0 0
526 1 4.3684405946196145e+00 5.2779277765287924e-01 5.5435094804397931e+00 0 0 -1
1080 1 5.0207897039291707e+00 8.0139054453312086e-01 6.2707477004464378e+00 0 0 0
1514 1 7.4506212215338170e+00 3.2003948924605283e+00 8.9442652184185611e+00 0 0 -1
1128 1 5.6433996004951510e+00 1.3463596918580374e+00 5.5542805027602826e+00 0 0 1
724 1 6.8099203670285799e+00 3.0399489331666435e-01 5.1915021868923654e+00 0 1 0
1498 1 6.0102826612831981e+00 4.3154133113931692e-01 5.9068582501697442e+00 0 0 0
1683 1 6.8739355497708026e+00 8.3675283637412334e-01 6.3413543680513964e+00 0 0 0
1199 1 6.6556504914875063e+00 1.3682983489534506e+00 5.2002377289547494e+00 0 1 0
3749 2 9.1578604768522460e+00 3.8834478311365461e+00 8.3147469739051107e+00 0 0 0
4122 2 7.4821743294675604e+00 1.5512871373974579e+00 5.5905776704561427e+00 0 0 0
1349 1 7.7218943318439264e+00 7.8039918010041043e-01 5.7808748733187176e+00 0 1 0
889 1 8.4644922535527254e+00 1.2599798705313823e+00 5.1529892936272725e+00 0 1 0
2044 1 8.7500892641996550e+00 2.9898616684354373e-01 5.5906893070561186e+00 0 0 0
1654 1 8.6434891210980176e+00 1.2382969810295830e+00 6.2066842907108208e+00 0 0 0
1907 1 9.0912806483444726e+00 3.6753369772792183e-01 6.6773010796236578e+00 0 1 0
1531 1 9.0081369035852266e+00 4.8648402820222975e-01 9.4919292577876249e+00 0 0 0
137 1 2.2598400373014051e+00 1.7370020569179417e-01 9.5949324338923461e+00 0 0 0
134 1 9.8749534258477889e-01 2.8231318616471355e+00 6.1650951912856247e+00 0 0 0
1021 1 9.0644855206208792e+00 3.4134393363575160e+00 9.3012384903808965e+00 0 0 0
1566 1 7.5023743876921163e+00 4.0660448011386627e+00 8.2518018410302467e+00 0 0 0
110 1 1.5419893868244334e+00 1.6680728989091538e+00 5.8466710088949583e+00 0 0 -1
26 1 1.0097864750574113e+00 2.4727535145121737e+00 5.2051353144357879e+00 0 0 0
695 1 2.6065697841313513e+00 1.7816845211205043e+00 6.0044419932665738e+00 0 0 0
602 1 2.0488668511836750e+00 2.1903304849849339e+00 5.1509201586153335e+00 0 0 0
2586 1 2.0174496652002865e+00 2.5675185049111291e+00 6.2479560944609869e+00 1 0 0
4302 2 2.7715919749796756e+00 2.6815447280983800e+00 5.6843350172838365e+00 1 1 0
1180 1 3.6228777931227283e+00 2.0590417862924442e+00 5.9408087958838909e+00 0 0 0
1482 1 4.0297504135313762e+00 2.8402842211205481e+00 5.2505636954402686e+00 0 0 0
592 1 1.5709601305668610e+00 9.7467396568174366e-02 8.7223978653342105e+00 0 0 -1
675 1 3.5048239617620482e+00 3.0868983962588121e+00 6.1750243283787301e+00 0 0 0
676 1 2.9450372117090131e+00 3.3424274338945064e+00 5.1761477402250309e+00 0 0 0
1114 1 4.8745826370315664e+00 2.1786401558133690e+00 5.3549078598332853e+00 0 0 0
1187 1 5.5018041566860694e+00 2.2095304278648689e+00 6.2121651212663878e+00 0 0 0
659 1 4.5925345942190496e+00 2.8970110406783203e+00 6.1426871853446805e+00 0 0 0
3713 2 5.4413552258619022e+00 2.8930148509999447e+00 5.6127278784988706e+00 0 0 0
698 1 4.5428761318964632e+00 1.8465890417081350e+00 6.3844542990641848e+00 0 0 0
1177 1 5.9997503240136423e+00 2.3753055935312744e+00 5.1950958969856300e+00 0 0 0
1853 1 6.5482576487016892e+00 1.8364598881570395e+00 6.1475375988194489e+00 0 1 1
3123 1 6.5789803092607704e+00 2.8742713356467746e+00 6.0579004467144806e+00 1 0 0
3577 2 7.3110063606037103e+00 2.5209670384733527e+00 6.2105977124742084e+00 0 0 -1
1676 1 7.1314248107618043e+00 2.3337350888990636e+00 5.3244910638945822e+00 0 0 0
1647 1 8.1723781217273022e+00 2.1263763758225149e+00 5.8064465824811080e+00 0 0 0
3598 2 6.5297405855501456e+00 9.0416375791732673e-02 6.5433169227617984e+00 0 0 0
1396 1 9.4081244157766104e+00 2.4647764180846832e-01 7.6282968005634215e+00 0 1 0
1153 1 8.1954378753378467e+00 2.7994102303014983e+00 6.5994850607203963e+00 0 0 0
282 1 2.3259919706308646e-01 2.1618690988804223e+00 5.8798781717781035e+00 0 1 -1
2590 1 4.3361739073928740e-01 4.1423821560924043e+00 5.8830568674706649e+00 1 0 0
2453 1 9.1425827811124760e-01 3.4953428056924203e+00 5.1839291991439413e+00 1 0 0
3811 2 2.5427777289333711e+00 3.8027914899462645e-01 5.1044043935465542e+00 0 1 0
2494 1 2.5646706600644427e+00 1.3002158758972331e+00 4.9920787928503305e+00 1 0 -1
1079 1 1.9011866513724138e+00 3.1604620379486494e+00 5.3564765040975546e+00 0 0 0
223 1 1.4830061428668784e+00 4.1391826046833877e+00 5.8542357103444553e+00 0 0 0
1133 1 2.5289813878449161e+00 3.5386077686716910e+00 6.1086168148218603e+00 0 0 0
153 1 2.9194103762801507e+00 4.4340175159600026e+00 5.0462082780718056e+00 0 0 1
1115 1 9.1697174965223169e+00 4.1486075975347481e+00 5.8411368987241694e+00 0 0 0
601 1 3.6533839972942426e+00 3.9971653190920935e+00 5.6509405242186395e+00 0 0 0
1093 1 4.8641287485026208e+00 3.8217787836156902e+00 5.8152501389689970e+00 0 0 0