LAMMPS data file via write_data, version 12 Dec 2018, timestep = 307560

4320 atoms
2 atom types

0.0000000000000000e+00 1.9309999999999999e+01 xlo xhi
0.0000000000000000e+00 1.9309999999999999e+01 ylo yhi
0.0000000000000000e+00 9.6549999999999994e+00 zlo zhi
4.4992299999999990e+00 0.0000000000000000e+00 0.0000000000000000e+00 xy xz yz

Masses

1 1
2 1

Atoms # atomic

4263 2 6.2012612660854183e+00 3.8716494010837126e+00 2.3964325200593657e+00 1 0 0
242 1 3.2055368166073261e+00 1.0938804992060118e-01 9.8854008688622752e-01 0 0 1
1433 1 9.3580065997760915e+00 4.2394541877787173e+00 1.3290324981674573e+00 0 0 0
2159 1 9.8933403345892206e+00 3.1833391366470170e+00 3.9440195563578060e+00 0 0 0
3622 2 8.0890464064119239e-01 1.4393107234260580e+00 7.1989181554119952e-01 0 0 1
1502 1 8.3106578866183103e+00 4.3656442526838726e+00 1.8081570491014862e+00 0 0 0
474 1 6.2582544986449740e-01 3.8498362852543727e-01 3.7888639845783358e+00 0 1 0
3205 1 1.2103563075716772e+00 2.2993034909409014e+00 9.8473818714740291e-01 1 1 0
1979 1 9.3882421982016044e+00 2.2822197429002911e+00 2.2941715286936799e+00 0 0 0
851 1 1.8528360230596244e+00 1.4227939710254833e+00 6.1230082932324104e-01 0 1 0
253 1 2.3132632043261880e+00 6.2296092921328883e-01 1.1618055564788556e+00 0 1 0
1190 1 2.7445799858491520e+00 1.6638058320724016e+00 1.1355596104964598e+00 0 0 1
3918 2 2.5589004086278622e+00 1.7464688379149622e+00 2.5326673655943571e-01 0 1 0
30 1 6.1022073223381845e+00 3.6622687534909089e+00 3.9960764604670720e+00 0 0 0
1127 1 2.6622153735716485e+00 9.0997427529678909e-01 1.9452358693562719e-01 0 0 1
1554 1 3.5598529773619032e+00 1.1600468875376051e+00 8.1628691318645785e-01 0 0 1
4116 2 3.2277111009540511e+00 8.4333424267797408e-01 1.5118585137236966e+00 1 0 -1
95 1 4.0151053816368742e+00 4.4194304552661501e-01 1.6731230435707309e+00 0 0 0
2513 1 8.9092607144683207e+00 3.5865406295126184e-01 1.0008919217750882e+00 0 0 0
986 1 1.1557703356626221e+00 4.6355011650070335e+00 4.7452511472193626e+00 0 0 0
870 1 4.5907852202982138e+00 1.4089092611288201e+00 1.2735938158184263e+00 0 1 1
1798 1 5.2328639072053003e+00 6.7843597908158004e-01 8.6068383811646210e-01 0 1 0
4042 2 2.8958849394104083e+00 1.0460450702380806e+00 4.7162816338865428e+00 0 1 0
1711 1 8.7920373137892778e+00 2.4659830855711693e+00 4.3705370933493815e-01 0 1 0
1615 1 6.2521644706268642e+00 1.0401136825015493e+00 9.8034304566096608e-01 0 0 1
1678 1 8.7480517100177515e+00 2.8421197184359923e+00 2.9431948743091927e+00 0 0 1
987 1 5.4643636904820347e+00 1.5095037298669469e+00 2.3779208320863857e-01 0 0 0
513 1 4.4651545107573263e+00 4.6039761011862863e+00 4.6957397023051382e+00 0 0 0
1117 1 4.3054128834187573e+00 3.9814538906314572e+00 1.4846606329196080e-01 0 0 1
3468 2 7.1025795381820958e+00 9.1851936739416884e-01 1.3067363536893288e+00 -1 0 1
1906 1 6.3645301473407478e+00 2.0347376618996416e-01 4.6763436709364559e+00 0 1 0
1470 1 8.8050571683252681e+00 2.5102353326216260e+00 1.4818964977959159e+00 0 0 0
2460 1 1.0532939695347491e+01 3.9562472534604747e+00 3.8039976986699995e+00 0 0 0
137 1 1.0724903369001428e+00 6.8140190229308017e-01 3.8732107317854397e-02 0 0 1
115 1 1.2505682293065667e+00 7.7551425891793080e-01 1.1126934787490705e+00 0 0 0
1783 1 4.1511131536124113e+00 1.9967200253227702e-01 3.0621266614329463e+00 0 1 0
254 1 8.5790116235147362e-01 3.3816153772166717e+00 1.2775570308273434e+00 0 1 0
1122 1 9.4072347654314683e+00 4.0889209821624872e-01 1.1653085296306991e-01 0 0 0
1160 1 8.0026631441383707e+00 5.7163013571945054e-01 1.4607300087502355e+00 0 0 0
3599 2 1.3750836695702338e+00 3.9172601801750204e+00 8.7886218976037833e-01 0 0 0
622 1 1.8256435108232956e+00 3.1604648713553809e+00 8.4156677919552714e-01 0 0 1
3750 2 2.0813724351092917e+00 2.3601080975073141e+00 1.0031370758469209e+00 0 0 1
34 1 2.9005484268006403e+00 2.5805151524176515e+00 6.6044501663205446e-01 0 0 0
1065 1 2.4242105675639114e+00 2.9147157253908009e+00 1.5927261951081866e+00 0 0 0
968 1 3.9234246980833207e+00 2.4451974953273985e+00 7.3091285059104349e-01 0 0 1
3708 2 3.5643992197702326e+00 1.8965476710814830e+00 1.2508413736538351e+00 0 0 0
1166 1 3.5901256755314210e+00 3.0182321302758841e+00 1.4739651413118298e+00 0 0 1
3768 2 3.9183632648978834e+00 3.3075300726387047e+00 5.9929633521720238e-01 0 1 0
3676 2 8.2583382109450181e+00 1.0427738973734244e+00 2.1108860823924624e+00 0 1 1
3757 2 5.5104138941016618e+00 1.4938324696180914e+00 1.1806857971734530e+00 0 0 1
1764 1 4.9987006020820717e+00 2.2371306408496539e+00 8.2013815714509408e-01 0 1 0
1617 1 6.0630971727408616e+00 2.0996234669489113e+00 9.2364723974506280e-01 0 0 1
2174 1 4.2159825330743983e+00 2.0035063508571441e-01 6.0655747994243248e-01 0 1 0
1499 1 7.1929666858150174e+00 1.8503304426836138e+00 9.7852442508798998e-01 0 0 1
1544 1 9.0514128153383702e+00 1.4309005561939521e+00 4.4998573683710980e-01 0 0 0
1946 1 9.9544208958310527e+00 3.9223823833495177e+00 2.1066062569599913e+00 0 0 0
1965 1 9.0016359962796066e+00 1.3095727051731385e+00 1.6076176935632092e+00 0 0 0
1145 1 8.3536920457208517e+00 4.1615533873557391e+00 4.2296060259215045e+00 0 0 0
2996 1 3.1709889870638119e+00 4.7135198937646656e+00 1.2400177272569786e+00 1 0 0
1689 1 9.4720169565123893e+00 2.3101755967039823e+00 4.5540692528979996e+00 0 0 0
3137 1 3.9857673052568332e-01 3.3065677204855104e-01 7.5858650756838697e-01 1 0 1
3482 2 8.2888017159954099e+00 4.3520950616385674e+00 5.4627482665417858e-02 0 0 1
3590 2 5.8350080544673197e+00 4.4842802357512506e+00 3.9694764132592226e+00 0 0 -1
1513 1 6.8095655085941447e+00 4.2766837534856785e+00 7.5462846709159559e-01 0 0 0
952 1 8.2262630824518759e+00 1.7184863677685902e+00 1.1398333316546896e+00 0 0 0
656 1 3.0542457305332400e+00 3.6483729671225560e+00 6.1964917449906431e-01 0 0 1
1441 1 9.9580530636529101e+00 1.9261500987144458e+00 2.7999820374562692e-02 0 0 0
717 1 2.2499670556229923e+00 4.2344988789696227e+00 8.2922272044541967e-01 0 0 1
1526 1 4.0879323665364042e+00 3.0725090890847753e+00 4.7837195479957346e+00 0 0 0
668 1 2.8936558881917929e+00 3.8461474617322597e+00 1.5996338111002859e+00 0 0 0
2201 1 8.4373336634677578e+00 3.6241838292433379e+00 9.9499929301623413e-01 0 1 0
1472 1 9.0933862195471491e+00 3.3907858113998111e+00 1.9537172145438908e+00 0 0 0
1019 1 4.6417914714525441e+00 3.2204200049889580e+00 1.0219137969089711e+00 0 0 0
1198 1 3.9134711096390609e+00 3.9852852587450451e+00 1.1177813703099906e+00 0 1 0
3627 2 4.7197945357061890e+00 4.2301853648050942e+00 8.8138984436171197e-01 0 0 1
1870 1 8.1912354923582313e+00 8.7385039775577378e-01 4.1740123672873708e-01 0 1 1
3503 2 7.8870436402407549e+00 1.7255098481939952e+00 3.7097262556058350e+00 -1 0 2
567 1 5.6758412788653620e+00 3.0795072468429248e+00 1.2128039826664068e+00 0 0 0
669 1 5.3506723509336016e+00 4.0424944432698497e+00 1.3628707382796383e+00 0 0 1
3865 2 6.0036836216195759e+00 4.0769569710812990e+00 8.7839350271214733e-01 0 0 0
1051 1 5.3229853761582255e+00 3.8459439795079646e+00 3.4906603920483814e-01 0 0 0
4296 2 7.2959688752911136e+00 4.6233253531735947e+00 4.5763413779462558e+00 1 0 0
3588 2 2.3885928040592446e+00 4.4018319989938055e+00 3.3952454224570219e+00 0 0 0
3771 2 9.0919794198038790e+00 2.8818636843970107e+00 3.7060523275902559e+00 0 1 -1
503 1 7.8991509924694014e+00 2.7102971906277840e+00 7.9425333711688062e-01 0 0 0
1506 1 6.8589125829328665e+00 2.9205385894121374e+00 1.1223281774729961e+00 0 0 0
1564 1 7.6117249793513597e+00 3.6091824587502175e+00 3.4227577959944733e-01 0 0 1
1572 1 7.3891029097109184e+00 3.8130156153081098e+00 1.5412489523997457e+00 0 0 1
1671 1 9.3741916337001747e+00 3.1700938049301093e+00 9.4044677684916211e-01 0 0 1
4242 2 9.5949907690186329e+00 5.4343013976765731e-01 1.6303526258896794e+00 0 0 1
2006 1 1.0112056171836556e+01 3.9827867203303184e+00 4.4822096230162256e-01 0 0 0
94 1 1.4408468875166123e+00 4.8015485015065174e-01 3.2398830572444388e+00 0 0 0
2145 1 9.4269325630377878e+00 2.1267696664247424e+00 3.3946501390590487e+00 0 0 0
2468 1 9.6705941049295419e+00 2.0086924775850692e+00 1.0729149335844141e+00 0 0 0
520 1 8.4746910456189384e-01 1.6138634589691783e+00 1.7002031486466489e+00 0 0 0
431 1 5.7093306986413928e-01 2.1790924960390465e+00 2.5994701020191608e+00 0 1 1
715 1 8.4426215340407462e-01 1.1649043638163314e+00 2.7433687037272820e+00 0 0 0
4133 2 1.0165484599803577e+01 4.5986587025532479e+00 4.2714052310102799e+00 0 0 0
1000 1 1.8111785992727707e+00 1.7830613407375391e+00 1.6865476371487502e+00 0 0 0
4214 2 1.3996265647346915e+00 1.9647020587820487e+00 2.3969618780974042e+00 1 0 0
817 1 1.6681407351072268e+00 7.4189548621301993e-01 2.1361990390595578e+00 0 1 0
159 1 2.6374929617087961e+00 1.2218333266098045e+00 1.9953327312342208e+00 0 0 0
992 1 1.8530199495168032e+00 1.5007518736082315e+00 2.9699739595313974e+00 0 0 0
966 1 2.3703480324434634e+00 5.0392473004558924e-01 2.8873988712343723e+00 0 0 0
1134 1 2.9172069738359188e+00 1.5240355230544602e+00 2.9850140998046575e+00 0 0 1
1040 1 3.7538227713050647e+00 1.4510653644334577e+00 2.0260485476975223e+00 0 0 0
1358 1 3.3594501606277110e+00 6.3354383550911675e-01 2.5093847232014164e+00 0 1 1
1621 1 7.5241040208044643e+00 4.0332827018782975e+00 3.3501605568659953e+00 0 0 0
3878 2 4.3128092560198246e+00 8.8515494183438514e-01 2.4908265428078584e+00 0 0 1
631 1 3.9696926652501188e+00 1.2355245295154169e+00 3.2027365265453422e+00 0 0 0
3756 2 5.7874682183629158e+00 3.9773275274850500e-01 1.4832405097661647e+00 0 0 1
1357 1 4.9365384703987170e+00 3.3135394073894098e-01 2.1627563404049823e+00 0 1 1
575 1 5.0224672176162484e+00 8.6150500909690741e-01 3.0840163743553966e+00 0 0 0
722 1 5.5677005364287817e+00 1.1641787854221339e+00 1.9405791814065876e+00 0 1 0
1147 1 5.8738775888579173e+00 5.2165223231394808e-01 2.7318362277107759e+00 0 0 1
1351 1 6.4581241703902821e+00 6.0300819137056816e-01 1.9354656251444660e+00 0 1 0
1562 1 6.2680657109281155e+00 4.7885988581797223e+00 1.5024072588083310e+00 0 0 1
1098 1 8.0052833513923964e+00 1.8554504392477771e+00 1.0197752249223072e-01 0 0 1
1457 1 9.1227377985341285e+00 3.7916045332907173e+00 3.5856182332288435e+00 0 0 0
955 1 6.7730487065827099e+00 4.4867212600735646e+00 3.8862972489929710e+00 0 0 0
3492 2 1.0013889276260317e+00 2.5134098817381084e-01 2.4163982007755300e+00 0 0 0
1050 1 5.6247619394740571e+00 2.6130870011496987e+00 1.1567128718729772e-01 0 0 0
171 1 1.1599719007276501e+00 4.7116335625432040e+00 1.1464554889643344e+00 0 0 1
3847 2 8.3861413653298804e+00 4.5203668720211176e+00 3.3128579905686291e+00 0 0 0
1485 1 9.7115553930221985e+00 5.1864835897337380e-01 2.4664173862018699e+00 0 0 0
558 1 1.2954944380010889e+00 2.6733741617414992e+00 1.9495156571372569e+00 0 0 0
1001 1 7.1089017175775657e+00 2.6068897746170303e+00 1.4963077623331314e-01 0 0 0
83 1 1.4210124330670957e+00 3.4500884772925438e+00 2.6061181478694850e+00 0 0 0
166 1 1.3670567221265806e+00 2.5170599447541764e+00 3.1110688935055038e+00 0 0 0
1376 1 2.2195333810634041e+00 2.3690810744104294e+00 2.5399335698777876e+00 0 1 0
3606 2 2.2245323316978722e+00 3.2771251209751422e+00 2.3429718762388969e+00 0 0 0
2941 1 3.0465567880108386e+00 3.1496674058630281e+00 2.4252947948613963e+00 1 0 0
3608 2 2.9911459264938527e+00 2.4175453092722292e+00 2.9249192440945397e+00 0 0 0
3128 1 2.2924887560007905e+00 3.3891816723500452e+00 3.2070031578595604e+00 1 0 0
555 1 3.1158573579322097e+00 2.2268550568212109e+00 1.9256219290535781e+00 0 0 0
505 1 4.2987286512169218e+00 2.3220360750358440e+00 1.6993659925728906e+00 0 0 0
663 1 3.7622095270061267e+00 2.1957384199416907e+00 2.7961019945854999e+00 0 0 0
3686 2 3.9036425965965398e+00 2.8608095127991198e+00 2.3136827737559647e+00 0 1 0
1446 1 4.7067853937357196e+00 2.6967600443568585e+00 2.5878449688079659e+00 0 0 0
568 1 4.7547650310205203e+00 1.6498170390450915e+00 2.4625082922306292e+00 0 0 0
3703 2 4.9784847826780609e+00 2.8939484375776416e+00 1.8187500587260534e+00 0 0 0
3533 2 5.9581817554085266e+00 1.3983608373287157e+00 2.7321712890302283e+00 0 1 0
1462 1 5.3673438317125246e+00 2.1312213880029951e+00 1.7560689257279589e+00 0 0 0
1511 1 5.6041289528398313e+00 2.1596264562438714e+00 2.9096736622749195e+00 0 0 0
1561 1 6.2754720595219400e+00 2.7452930308257413e+00 1.9970001753846764e+00 0 0 0
2197 1 6.7293924627260058e+00 1.0479526855045225e+00 2.8200214816778688e+00 0 1 0
566 1 6.4911119405046582e+00 1.6809614959226813e+00 1.8411401369312421e+00 0 0 0
1437 1 7.2474988258879067e+00 2.4715560043663034e+00 2.0024072612642785e+00 0 0 0
2101 1 7.4894048785849039e+00 1.3836684242014614e+00 1.9198784307107570e+00 0 0 1
3946 2 7.3223470605963970e+00 1.8069303295473678e+00 2.6573172134338887e+00 0 1 0
1721 1 6.6499090601020461e+00 2.2605121384999514e+00 2.9238297888364961e+00 0 1 0
2421 1 7.7192125979841002e+00 2.4468629547057699e+00 3.0530891023435789e+00 0 0 0
2689 1 9.1080129586296863e+00 1.3355987204638078e+00 2.6643906459089099e+00 0 0 0
50 1 4.4527928259848277e+00 4.6927070677210709e+00 1.6382356095632371e+00 0 0 0
1191 1 5.0263757412615373e+00 4.6308783128946587e+00 3.7295903812676108e+00 0 0 0
1696 1 7.4488667121780203e+00 3.7836087059272248e+00 4.4197277452019526e+00 0 0 0
975 1 8.6855476309260595e+00 1.2839305444478211e+00 4.7530090313456643e+00 0 0 0
2037 1 6.8725913251746000e+00 4.4738675443547766e+00 2.6989354787809723e+00 0 0 0
615 1 1.8291565688309257e+00 3.8524121025602995e+00 1.6862436350562140e+00 0 0 1
2112 1 1.0441038531391822e+01 4.4759644980739006e+00 1.3820819350189566e+00 0 0 0
2538 1 9.8312456722217565e+00 9.4029849526327702e-01 9.1962486412318589e-01 0 0 0
2141 1 7.8646993835686825e+00 4.6217847937541841e+00 8.5728718534941284e-01 0 0 1
1071 1 6.3287370979038062e+00 1.4538833486007139e+00 4.5335133925320008e+00 0 0 -1
767 1 7.0595285145073099e+00 8.1471470001534360e-02 1.0079926997100936e+00 0 1 0
1039 1 3.5482336661884242e+00 4.3111669607735559e+00 2.2787809058018866e+00 0 0 0
4238 2 2.3857764276317681e+00 4.5221318625855851e+00 1.7521240957574791e+00 1 0 0
3619 2 3.1066247352634173e+00 3.7252639028166694e+00 3.0359645308070635e+00 0 0 1
586 1 2.4874711313511719e+00 4.1779938054016501e+00 2.5429884028935597e+00 0 0 0
2132 1 9.3360386769407402e+00 5.1675036617629244e-01 3.4739235567164806e+00 0 0 0
1682 1 7.0066940053860156e+00 3.1233542982505567e+00 3.6690482693027557e+00 0 0 0
1440 1 3.9147186979455069e+00 3.5360795624234331e+00 2.8357613224237248e+00 0 0 0
664 1 4.5152392955283229e+00 3.6675738801205284e+00 1.9890122380574800e+00 0 0 0
550 1 4.3118186440313924e+00 4.5990139778098040e+00 2.9390444166747427e+00 0 0 0
655 1 5.1775843938305268e+00 4.4562599595671717e+00 2.3655166688645819e+00 0 0 1
994 1 4.8880928367299683e+00 3.7577928251112058e+00 3.1227596502349275e+00 0 0 0
1428 1 6.3631476982419146e+00 3.8132915270371011e+00 1.6091118872882433e+00 0 0 0
1613 1 9.5130694533529550e+00 4.0262840737833354e+00 4.5114452585329836e+00 0 0 0
534 1 6.1579499491859622e+00 3.1735532209124875e+00 3.0012192624283029e+00 0 0 0
1271 1 5.4963837155156483e+00 3.4058148770720105e+00 2.2502538763421303e+00 0 1 0
1474 1 1.0012105564226175e+01 4.4326702808302185e+00 3.0088096592981004e+00 0 0 0
3838 2 6.6317591751643654e+00 3.8214777886175182e+00 3.3173556959948716e+00 0 0 0
3127 1 2.9639121126616903e+00 4.0684432439903571e+00 3.8869540836968004e+00 1 0 0
1072 1 8.0498884908413189e+00 3.1446672424269098e+00 2.0122023553638804e+00 0 0 0
1535 1 7.0134295973635892e+00 3.4598116880280450e+00 2.5033195290675989e+00 0 0 0
3964 2 7.7260066309357960e+00 3.2611881050284421e+00 2.9454612609408639e+00 0 1 0
1858 1 7.7058782183045453e+00 1.3403126614504557e+00 4.5000029750558213e+00 0 1 0
1103 1 8.3994081168548025e+00 3.3184892865241922e-01 4.2078351021789100e+00 0 0 0
2076 1 8.0018990931544103e+00 1.3928011049920002e+00 2.8971318245010602e+00 0 0 1
3040 1 3.5421661847820500e+00 4.6034035339000097e+00 2.5001196517707369e-01 1 0 0
386 1 4.8630088160394402e+00 1.0994749974770271e-01 4.0129229637404515e+00 0 1 0
1607 1 9.0938079907929215e+00 4.5705831227260942e+00 3.6304713415147921e-01 0 0 1
599 1 2.6848746034432365e+00 4.5407546339520405e-01 3.9401326715692195e+00 0 0 0
1531 1 7.5133234619590574e+00 2.1793866920596292e-02 4.1183974457685533e-02 0 0 1
194 1 5.0054850617800639e-01 9.8089405130899532e-01 4.6186338413974033e+00 0 0 0
3192 1 6.0747196525119951e-01 2.1073123226695913e+00 3.7330812796465338e+00 1 0 0
3688 2 2.7053907903939831e+00 4.3127530272225112e+00 4.7456765604175395e+00 0 1 0
1022 1 3.1131965183188290e+00 4.7741352809772701e+00 3.0994567912633673e+00 0 0 -1
1880 1 8.3930188980998324e+00 3.8375419293350803e+00 2.7640614890549284e+00 0 0 0
1584 1 1.2575664642396769e+00 1.3718776504913150e+00 3.9506655306870497e+00 0 0 0
3464 2 2.0305821711548591e+00 9.4801019012876797e-01 3.6162319638778166e+00 0 0 -1
652 1 2.2508828415775186e+00 1.4898734606860891e+00 4.2912863519592612e+00 0 0 0
1622 1 8.0828453053450371e+00 3.2058441516795964e+00 3.7779402796218333e+00 0 0 0
991 1 7.5604418079906210e+00 4.0622627554729884e-01 2.4810533837475726e+00 0 0 0
4264 2 3.2361515909135967e+00 8.2344550377290782e-01 3.3727026020403073e+00 1 0 1
1054 1 3.8116125027692838e+00 5.0996381601273200e-01 3.9935691475228872e+00 0 0 0
481 1 3.2651315359291058e+00 1.4354019914301279e+00 4.0233348313694650e+00 0 0 0
235 1 4.5968364777425412e+00 1.1642259739910954e+00 4.0905180034308311e+00 0 0 0
887 1 1.6370309822519737e+00 4.1995122329023943e-01 4.2508082518938304e+00 0 1 0
3856 2 5.6574462539625108e+00 3.4627598651917779e-01 3.5363604932501245e+00 0 0 0
2360 1 5.5097662489760850e+00 7.5485210673132153e-01 4.3439083289279674e+00 0 1 0
2064 1 8.4449153082077688e-01 2.9636546772919004e+00 2.2918720226657222e-01 1 0 1
3587 2 7.5957807880979544e+00 4.1741761179334258e+00 2.3567926621497617e+00 0 0 0
1950 1 7.6331436445603513e+00 7.1951008505286551e-01 3.6024945705304590e+00 0 0 0
4029 2 6.9663794978916442e+00 8.3552579406888516e-01 4.2287480321375668e+00 0 1 0
580 1 6.4923297494148855e+00 3.5633302045919180e-01 3.6281158989586881e+00 0 0 0
574 1 3.5521738429052920e+00 4.1496936592806160e+00 4.8083072137642695e+00 0 0 0
4129 2 9.3317689757095614e+00 3.8401915811630012e+00 2.7049415647833213e+00 1 0 1
1425 1 8.4757636067671065e+00 2.2967498727474625e+00 3.8800726049311334e+00 0 1 0
17 1 4.2580788719152896e-01 5.1499327414880536e-01 1.8217405293678148e+00 0 0 0
1242 1 4.3934086154472007e+00 1.5255033583661950e+00 2.4157248060797115e-01 0 1 0
906 1 8.2891326624115216e+00 2.1146607353483731e+00 2.2481932809847356e+00 0 1 0
3855 2 4.0935897693403556e-01 1.1809984932584536e+00 3.8036547843212563e+00 0 0 0
3772 2 1.8192229983610391e+00 5.0912021110293393e-01 4.6157976071136192e-01 0 1 1
3793 2 6.6709506284454108e+00 9.3008241034559985e-02 1.7265142527447930e-01 0 1 0
1359 1 7.0610694492226580e+00 9.7518797377198774e-01 3.9699073188905892e-01 0 1 1
2854 1 9.6420926376409533e+00 1.3289179399379378e+00 4.2379346843588186e+00 0 1 0
1538 1 8.3508982170365265e+00 2.2454702028485043e-01 3.0717032471167958e+00 0 0 0
288 1 1.3637587064054784e+00 3.4192385735274633e+00 3.6998811738150104e+00 0 1 0
4208 2 1.5425722156752384e+00 3.4115130948123151e+00 4.5877696308842877e+00 1 0 0
543 1 1.5360228310555644e+00 2.3935791803088877e+00 4.1411067293376007e+00 0 0 0
1165 1 2.3840752175851296e+00 2.2969334659931890e+00 3.5914645944896484e+00 0 0 0
802 1 2.3959246392025491e+00 3.1394881404177322e+00 4.2400362410291486e+00 0 1 0
572 1 3.2372103476793308e+00 2.9788453308130949e+00 3.5379704562855783e+00 0 0 0
1167 1 3.1801661074273722e+00 2.4407367075323219e+00 4.4110084164469940e+00 0 0 0
3480 2 8.0947470895362694e-01 2.8390674280435308e+00 4.1582977225767124e+00 0 0 0
3719 2 3.3313966091826637e+00 3.3457477671961993e+00 4.4467156991169405e+00 0 0 -1
4119 2 3.7101408181886724e+00 2.0901940098309488e+00 3.6292861747578651e+00 0 0 0
1007 1 4.2123476797220434e+00 2.1343229730986928e+00 4.3681956562076030e+00 0 0 0
2164 1 4.2292892883380553e+00 2.9720971518447348e+00 3.6129733396943386e+00 0 0 1
3884 2 4.8343500684741665e+00 2.7856305539432893e+00 4.3472995108941568e+00 0 0 1
1062 1 4.6848276194128164e+00 2.0612425611004919e+00 3.4471488814627231e+00 0 0 0
1194 1 5.9326517118372672e+00 1.2860545089575173e+00 3.5734797191843199e+00 0 1 0
814 1 5.2703952782136474e+00 1.9183999355351253e+00 4.3348037044111338e+00 0 1 0
1081 1 5.2641789633452571e+00 2.9109006199209939e+00 3.6115780527787322e+00 0 0 1
860 1 6.1874369501656776e+00 2.3988376264010300e+00 3.9727436703461225e+00 0 1 1
3460 2 8.5914560126983801e+00 1.9801049524273953e+00 3.0686340159380143e+00 -1 0 0
2250 1 8.6639942846763809e+00 1.2890665625138682e+00 3.6765335960696293e+00 0 1 0
2098 1 6.2879456456111678e+00 3.3289332082952234e+00 3.9494445665181299e-01 0 0 1
1573 1 6.9829882467107742e+00 1.6100160875131371e+00 3.6628438531631002e+00 0 0 0
537 1 7.4153453099468933e+00 2.3060064739091861e+00 4.2916390998143541e+00 0 0 0
508 1 5.8729178792484547e+00 4.2278086661457994e+00 3.1737682625817025e+00 0 0 0
964 1 1.0031110816773397e+01 2.8501934319297781e+00 1.7716059471928260e+00 0 0 0
2063 1 9.7894354189381652e+00 3.1481544364234373e+00 2.8832221786188734e+00 0 0 0
124 1 4.8896571261755781e+00 3.6763728488753329e+00 4.2886488197858394e+00 0 0 0
177 1 1.5595703737830273e+00 4.3228228405598985e+00 3.1453254367411700e+00 0 0 0
1505 1 4.0019132154027002e+00 4.0122527293339578e+00 3.8069270114683689e+00 0 0 0
232 1 1.9431016094277149e+00 4.1468123640085608e+00 4.1224680294320732e+00 0 0 0
1137 1 9.0253527149659512e+00 4.5908575252814128e+00 2.7374020458779231e+00 0 0 1
3121 1 8.8007792941530827e+00 3.1961577724498147e+00 4.6148015401889131e+00 0 0 0
4148 2 1.0207682970949661e+00 4.2732719706722024e+00 3.9148618820502126e+00 1 0 0
1519 1 8.7919115485401580e+00 3.9530377440505554e-01 2.0771212738063145e+00 0 0 0
3775 2 6.7053429326022300e+00 1.5512640886984716e-01 2.7441126702021017e+00 0 1 0
548 1 5.5734461886867619e+00 2.9774895248837447e+00 4.6536405114120951e+00 0 0 0
3635 2 9.5417468461387447e+00 8.4874059704006643e-03 4.1547966913805006e+00 0 0 1
3867 2 8.9453067714047272e+00 4.5946305858117764e+00 4.7252372580561435e+00 0 0 0
733 1 4.6561219848865774e+00 3.0100771171237390e+00 1.9936515498029904e-02 0 1 0
636 1 1.7241220415085994e+00 4.8196572277390919e+00 2.1842003223572228e+00 0 0 1
1536 1 7.2350275418658576e+00 4.8244491142259527e+00 1.7652536853130663e+00 0 0 0
581 1 1.5899287534951816e+00 3.9549348979357282e+00 3.7415022649591206e-02 0 0 0
1029 1 5.9478434714096275e+00 6.0882996058493410e-01 9.2819790369053370e-02 0 0 0
4228 2 1.6507948139109638e+00 3.3914819401217582e-03 1.6394945421277771e+00 1 0 0
2108 1 6.6813462208545928e+00 3.0200501468960366e+00 4.6814457900074871e+00 0 0 0
2850 1 9.9257266722117024e+00 1.4238710530827716e+00 1.9486625843564080e+00 0 1 0
970 1 5.4490747665914121e+00 4.3097293560394059e+00 4.8084784026673599e+00 0 0 0
1588 1 9.2948023407668714e+00 4.7834914361183012e+00 3.8371329718514366e+00 0 0 0
21 1 1.9941266501234327e+00 2.3675535148116209e+00 1.0059829427286827e-01 0 0 0
878 1 7.3831572149950802e+00 1.7661648362842616e-02 4.3143115794417302e+00 0 1 0
2084 1 8.6972888438721689e+00 3.5554773082934328e+00 3.0894032481854655e-02 0 0 1
628 1 6.4851546609614648e+00 4.1286234926532464e+00 4.7953510372752968e+00 0 0 0
577 1 2.6383947374262400e+00 1.4686908613310589e-03 1.9469443791021919e+00 0 0 0
2100 1 9.7118562990172048e+00 3.5041381863173235e+00 6.0427794263208918e+00 0 0 0
3723 2 5.8603311925180792e+00 4.7148837891463282e+00 8.8790424054734647e+00 0 0 0
617 1 5.9375743378012773e+00 4.4466160819249705e+00 8.0307387676869926e+00 0 0 0
1171 1 8.8391637991286718e+00 2.8750171246066767e+00 5.6494216317855095e+00 0 0 0
1069 1 2.8835774004708838e+00 1.7386710493968722e+00 5.1206625547077174e+00 0 0 0
4078 2 8.6817357970912354e+00 9.9913015357772816e-01 5.5438904160372475e+00 0 1 0
3545 2 7.9664773124333510e-01 1.5247086272117929e+00 5.4092928901089197e+00 0 1 0
1549 1 9.2895194744369007e+00 4.4975139971093137e-01 4.8806709001262201e+00 0 0 0
4220 2 8.2818721085876170e+00 1.2075555427615801e+00 7.3959859698931290e+00 0 0 -1
3728 2 9.6907840748799110e+00 2.9129706316069268e+00 7.7039375071299556e+00 0 0 0
1628 1 8.4639013545647774e+00 4.0840945905443888e+00 8.0751464850055594e+00 0 0 0
706 1 1.4339495650422358e+00 1.1706072187647640e+00 5.8752432499033294e+00 0 0 0
592 1 2.6607588420468992e-01 6.1279712777380679e-01 8.8091018073424241e+00 0 0 -1
3513 2 2.1053677988194144e+00 1.6789093108104649e+00 5.4961440536034356e+00 0 0 0
842 1 2.1105134675086772e+00 9.3716934425723342e-01 5.1304264317417401e+00 0 1 0
913 1 2.5121774952187215e+00 1.3582679689670467e+00 6.2447203544718288e+00 0 1 0
517 1 5.1424685672359214e+00 4.6095818540584608e+00 9.2828178319754002e+00 0 0 0
1904 1 7.9549692317052036e+00 1.5226756944048847e+00 5.5888752633790659e+00 0 1 0
3611 2 3.8688972334964169e+00 5.3532786750709160e-01 5.4454586618457634e+00 0 0 1
3752 2 3.5503316062600421e+00 1.4173567785152683e+00 5.6919444811738780e+00 0 0 0
526 1 3.0012654663485367e+00 7.2049139636973503e-01 5.5694304881301271e+00 0 0 -1
1080 1 3.7510190311948919e+00 8.1408619595281750e-01 6.2696667270056992e+00 0 0 0
1514 1 6.3579630519388823e+00 2.7241429317235197e+00 9.0352945643760698e+00 0 0 -1
1128 1 4.4614025908892252e+00 1.3233321578999655e+00 5.6787286463979827e+00 0 0 1
1557 1 9.4605395259464657e+00 3.7861384923707129e+00 8.1155489363206730e+00 0 0 0
2053 1 8.7863477292623777e+00 1.9024546757074847e+00 6.1199867693302457e+00 0 0 0
1683 1 5.3971877960152987e+00 5.9058013093266848e-01 6.2997706896828563e+00 0 0 0
1199 1 5.3807505312247397e+00 1.3241720123394614e+00 5.2062521836871811e+00 0 1 0
3749 2 8.1177730832249200e+00 3.1300566184658103e+00 8.4608182507507639e+00 0 0 0
4122 2 6.0670446449978037e+00 8.4623186471780820e-01 5.2330501147943007e+00 0 0 0
1349 1 6.4134376951580698e+00 3.3906249450313153e-01 5.9466319681147635e+00 0 1 0
889 1 6.9568291596853280e+00 8.6737204887920250e-01 5.1046094390086489e+00 0 1 0
1021 1 8.0715863763748139e+00 2.7485351392712385e+00 9.3135965481826180e+00 0 0 0
1654 1 7.2407350890237510e+00 9.6810175135904430e-01 6.1849000728304473e+00 0 0 0
1099 1 3.5549348735973370e+00 4.7411025686435915e+00 6.5494096865086098e+00 0 0 0
3814 2 1.0437382508038211e+00 5.4185331049432550e-01 6.3205995702269844e+00 0 1 0
3100 1 1.4996384507731695e+00 4.6997219995827555e+00 6.9553085251485101e+00 1 0 0
624 1 6.4563558456190453e+00 1.6947122668583607e+00 9.5211498871797318e+00 0 0 0
323 1 2.4314305431870906e+00 3.2771392816684579e+00 9.5729361606218415e+00 0 1 -1
1566 1 6.5056899246885322e+00 3.5387833140164724e+00 8.2977904346858118e+00 0 0 0
2619 1 1.0194957548177639e+01 4.1599160702666103e+00 6.8943676096011792e+00 0 0 0
4130 2 8.2510280896096173e+00 4.6260449745518457e+00 7.3936767434842414e+00 0 0 -1
695 1 1.5220579886087022e+00 2.1889034985328140e+00 5.8922192639822430e+00 0 0 0
602 1 1.1875061073333772e+00 2.7931581407289992e+00 5.0048204009156088e+00 0 0 0
2586 1 1.2104414487120043e+00 3.1513979699244485e+00 6.2559997266772314e+00 1 0 0
4302 2 1.9248581736839019e+00 2.9705412009284338e+00 5.6896935619801523e+00 1 1 0
1180 1 2.5730024422353592e+00 2.3927749518127106e+00 5.9916335999106911e+00 0 0 0
1482 1 3.0810993076731226e+00 3.2375824570798089e+00 5.2771807952528382e+00 0 0 0
370 1 2.4079400216936251e+00 4.2618217540661807e-01 8.0807247653097374e+00 0 1 0
675 1 2.5021469782006784e+00 3.4451011565428740e+00 6.2621856105441189e+00 0 0 0
676 1 2.1921075931237786e+00 3.7013912465190373e+00 5.2098146944955666e+00 0 0 0
1114 1 3.7235937551830980e+00 2.2905401113142592e+00 5.4241581374156906e+00 0 0 0
1187 1 4.4598029315013994e+00 2.2671056190204508e+00 6.1989577061916448e+00 0 0 0
659 1 3.4679974268293852e+00 2.9473587690312408e+00 6.2317973935657625e+00 0 0 0
3713 2 4.2479494511009523e+00 2.9383216862198420e+00 5.7077295320451409e+00 0 0 0
698 1 3.5037343157163479e+00 1.9580536232309980e+00 6.3872874689349475e+00 0 0 0
1177 1 4.8658785342090249e+00 2.3573920488250910e+00 5.2114950888389266e+00 0 0 0
1853 1 5.3359256891977012e+00 1.7357941421407552e+00 6.1951764053795113e+00 0 1 1
3123 1 5.3983752646555887e+00 2.7811769633382655e+00 6.0905122919409749e+00 1 0 0
3577 2 6.0209924483059201e+00 2.2359137310433219e+00 6.1611210695744916e+00 0 0 -1
1676 1 5.9688085940122324e+00 2.2268360265705587e+00 5.2932483845442926e+00 0 0 0
1647 1 6.3053134338600474e+00 1.4238081467573340e+00 5.8196257216011738e+00 0 0 0
3707 2 6.7254230342650869e+00 8.8474034130206070e-01 9.2683851346303481e+00 0 0 -1
686 1 4.9469880037279690e-01 1.6202469345755048e+00 8.7925697124292181e+00 0 0 0
1153 1 7.0069421321051317e+00 1.9811704820946798e+00 6.3979136018683525e+00 0 0 0
4284 2 9.0199611278239136e+00 2.3003126962092257e-01 6.8082407425937701e+00 0 1 0
998 1 7.5459154989354928e+00 4.3651397728835004e+00 6.5442787221234902e+00 0 0 0
3518 2 3.7271480991406643e+00 1.0996271671779211e-01 6.7136480499027682e+00 0 1 0
2610 1 9.2867141949630625e+00 2.2037494731476088e+00 8.1494182703048867e+00 0 0 0
1688 1 8.8335874049452308e+00 3.9921560916635346e+00 5.4152669757459790e+00 0 0 0
1079 1 1.1375208086580590e+00 3.7582438097508191e+00 5.4095184223955028e+00 0 0 0
2123 1 9.3784721636134698e+00 6.4697479968757032e-01 5.9800952849442899e+00 0 0 0
1133 1 1.8024339178750179e+00 4.2845162142276312e+00 6.0103266514212752e+00 0 0 0
1963 1 8.4007446918435011e+00 2.2512861616540669e+00 4.9274902492473434e+00 0 0 0
1115 1 8.0625972306651974e+00 3.5257839699729643e+00 6.0153061159572312e+00 0 0 0
601 1 2.9244198941018871e+00 4.2678932022205247e+00 5.6726337886770279e+00 0 0 0
1093 1 3.9903007804297959e+00 3.9088229502791769e+00 5.7964899782535531e+00 0 0 0
1814 1 8.9640377309364272e+00 2.3980685985840172e-01 8.4566044530861681e+00 0 1 0
2088 1 4.9300230695274037e+00 3.3966147332471541e+00 5.3988117336087784e+00 0 0 0
127 1 4.5668161106219820e+00 3.2638187632540574e+00 6.4767769612126553e+00 0 0 0
784 1 7.4818381015507454e+00 7.2609625584110449e-01 7.1162539167021235e+00 0 1 0
1085 1 6.0048162559380938e+00 3.4689942800975500e+00 5.4981156316574316e+00 0 0 0