LAMMPS data file via write_data, version 12 Dec 2018, timestep = 436920

4320 atoms
2 atom types

0.0000000000000000e+00 1.9309999999999999e+01 xlo xhi
0.0000000000000000e+00 1.9309999999999999e+01 ylo yhi
0.0000000000000000e+00 9.6549999999999994e+00 zlo zhi
6.3916100000000000e+00 0.0000000000000000e+00 0.0000000000000000e+00 xy xz yz

Masses

1 1
2 1

Atoms # atomic

4263 2 5.3973633733460149e+00 4.3486947518171677e+00 2.0261046572560852e+00 1 0 0
4214 2 8.4366780856816215e-01 1.8484272816844221e+00 2.3731646395860957e+00 1 0 0
1433 1 8.7936543794307021e+00 4.0176298158669610e+00 1.3911425542426497e+00 0 0 0
2159 1 9.2178110444992107e+00 2.9821175046679445e+00 3.9658993404893979e+00 0 0 0
1684 1 1.0239893125957851e+01 2.9521299450514613e+00 2.3387944652973096e+00 0 0 0
1502 1 7.7351814274264621e+00 4.2900338947680350e+00 1.9020704605130609e+00 0 0 0
1103 1 7.7347366227232852e+00 1.6009272441069602e-01 4.3679210587314872e+00 0 0 0
744 1 4.7968087404972461e+00 4.7729480075477539e+00 6.1404565021656454e-01 0 1 0
1979 1 8.6231857768897093e+00 2.0983151734340288e+00 2.3538627352584682e+00 0 0 0
851 1 1.1851962189586502e+00 1.5446267859104224e+00 5.4413012800940885e-01 0 1 0
253 1 1.7003500825901581e+00 7.8729667850708662e-01 1.1367456793218076e+00 0 1 0
1190 1 2.1661676343847098e+00 1.7210405855267161e+00 1.1061904547144996e+00 0 0 1
3918 2 2.0754272845502881e+00 1.8053696661184040e+00 2.1166540322000565e-01 0 1 0
30 1 5.4863162726500256e+00 3.5482545139763477e+00 3.9679014587233725e+00 0 0 0
1127 1 2.0776029557622806e+00 9.3209884428293099e-01 2.1250929652385603e-01 0 0 1
1554 1 2.9855073240416350e+00 1.1818192847402142e+00 9.0175628055108270e-01 0 0 1
4116 2 2.6182191796842997e+00 8.6301679164131084e-01 1.6079417804223890e+00 1 0 -1
95 1 3.4245591929791850e+00 4.6417499569612275e-01 1.6875671961895691e+00 0 0 0
2513 1 8.2471578337330573e+00 2.0879823960278970e-01 1.1350393127469647e+00 0 0 0
2275 1 1.0052362850810303e+01 3.2755672940709162e+00 1.3089418891892761e+00 0 1 0
870 1 3.9128303713808981e+00 1.4505503806713202e+00 1.3495394070043882e+00 0 1 1
1798 1 4.6068702028722983e+00 5.8216975768850598e-01 1.1218288961430420e+00 0 1 0
3688 2 2.1158413929337510e+00 3.9688104097820389e+00 4.7455138668521037e+00 0 1 0
1711 1 8.2278155352224012e+00 2.2430268074338753e+00 4.9712361351189799e-01 0 1 0
1615 1 5.5828917782079230e+00 1.0704074047915890e+00 1.0730913142312952e+00 0 0 1
1678 1 8.0917884278472982e+00 2.8152106751975543e+00 2.9711590163301316e+00 0 0 1
987 1 4.9105784809443414e+00 1.4978408351629897e+00 3.3642477556620193e-01 0 0 0
3492 2 3.0551326084650376e-01 4.4081358257415237e-01 2.5728584344485084e+00 0 0 0
1485 1 9.2374814993366403e+00 4.5808230935665956e-01 2.5727274555101385e+00 0 0 0
3468 2 6.5743984519901861e+00 9.2327030118009012e-01 1.0212221177708707e+00 -1 0 1
2996 1 2.4877906673864150e+00 4.7864542300117723e+00 1.1692990291086940e+00 1 0 0
1470 1 8.0769173130954268e+00 2.5008620888685757e+00 1.4704136192161632e+00 0 0 0
3775 2 6.0731764613627819e+00 1.7266574721943218e-01 2.8595442346421085e+00 0 1 0
2131 1 1.0720245161577138e+01 4.4878523096536362e+00 3.3790252668024050e+00 0 0 0
115 1 6.5732004609737760e-01 9.3199347320062320e-01 1.3065598962425757e+00 0 0 0
2081 1 9.6210912864811036e+00 1.9806091976830178e+00 3.9743402996575434e+00 0 0 0
2460 1 1.0101137645053411e+01 3.7517292832613318e+00 3.8230761882066724e+00 0 0 0
3590 2 5.2972976451060667e+00 4.5923006476184218e+00 4.0506373963143369e+00 0 0 -1
1160 1 7.2730811510158180e+00 5.2548733552510507e-01 1.3942947931395706e+00 0 0 0
3040 1 2.9056456575240581e+00 4.6793930183193790e+00 1.4494619503406861e-01 1 0 0
622 1 1.2610464189814239e+00 3.1885250422977935e+00 6.2306027274454689e-01 0 0 1
3750 2 1.4823475036194911e+00 2.3024033937233210e+00 8.3665691866688641e-01 0 0 1
34 1 2.2994526619421176e+00 2.5991687063375082e+00 6.0255803035638023e-01 0 0 0
1065 1 1.6643010929973507e+00 2.8270150669251208e+00 1.5419976821317725e+00 0 0 0
968 1 3.3378950353715338e+00 2.4003981704184589e+00 5.4503567669920672e-01 0 0 1
3708 2 2.9212780934297498e+00 2.0561058361854396e+00 1.2323225001356513e+00 0 0 0
1166 1 2.9242365079047241e+00 3.0687997721087776e+00 1.3261171796109705e+00 0 0 1
3768 2 3.3174508791534496e+00 3.3315252365483232e+00 5.9250566590639797e-01 0 1 0
3676 2 7.4694148413434789e+00 1.0656207524074270e+00 2.0637747260983206e+00 0 1 1
3757 2 4.8843530634441130e+00 1.5545396554035311e+00 1.2799473606678975e+00 0 0 1
1764 1 4.4033948781397596e+00 2.3019319937140996e+00 7.5409276977732587e-01 0 1 0
1617 1 5.4498656029603980e+00 2.1605705481414534e+00 9.9207996583088132e-01 0 0 1
2174 1 3.6183403723454939e+00 4.0845764577298010e-01 5.4389774262490975e-01 0 1 0
1499 1 6.4310067476489454e+00 1.8128997860681755e+00 9.0593430243708939e-01 0 0 1
1544 1 8.1860333495392279e+00 1.2063259277296181e+00 6.6631840188330271e-01 0 0 0
1946 1 9.5058345702258293e+00 3.7453773265627470e+00 2.1948336627466367e+00 0 0 0
1965 1 8.2185529911952422e+00 1.2310284891677308e+00 1.7288851530521006e+00 0 0 0
1145 1 7.9657736588800683e+00 4.1423831536903943e+00 4.1070415660497597e+00 0 0 0
1562 1 5.6976607300539337e+00 4.6811359678505911e+00 1.3060472633452895e+00 0 0 1
4242 2 8.8243283882056538e+00 5.1189835550442875e-01 1.6997738714900490e+00 0 0 1
2048 1 1.0585716917414434e+01 4.0001805263823451e+00 2.2806893767962571e+00 0 0 0
4133 2 9.6958166773680325e+00 4.6536311242674850e+00 4.7773758324610132e+00 0 0 0
513 1 3.9349798596918455e+00 4.5220048730685685e+00 4.6522812755301173e+00 0 0 0
1513 1 6.4246089295424760e+00 4.1189821728588534e+00 8.0732755027424208e-01 0 0 0
952 1 7.4050420516542843e+00 1.5868902381841987e+00 1.2000272381426769e+00 0 0 0
656 1 2.5727264837602002e+00 3.7513243424971767e+00 4.7974575914399264e-01 0 0 1
2084 1 8.1971321146126055e+00 3.3680105585710458e+00 3.4078743290637828e-02 0 0 1
717 1 1.6135855869189992e+00 4.1823734716434933e+00 7.1879658024466153e-01 0 0 1
1527 1 1.0088484902939518e+01 3.1114073682680736e+00 1.8796749762477719e-01 0 0 0
668 1 2.1696057619794731e+00 3.7888251614850290e+00 1.4060285547541951e+00 0 0 0
2201 1 7.9172399896354957e+00 3.4636115149136271e+00 1.1105580319915385e+00 0 1 0
1472 1 8.4546609927168976e+00 3.2831567352252828e+00 2.1070562397673553e+00 0 0 0
1019 1 4.0503699018912478e+00 3.2874485032414573e+00 1.0382894819841111e+00 0 0 0
1198 1 3.2841318211608339e+00 4.0758666973263074e+00 1.1357655502208504e+00 0 1 0
3627 2 4.1564842608893411e+00 4.1394848424030135e+00 8.7462895875571989e-01 0 0 1
1870 1 7.4147372128885509e+00 5.5388179190917242e-01 3.9955662888448285e-01 0 1 1
3503 2 7.1855374451363820e+00 1.5314214655076483e+00 3.6755442005423791e+00 -1 0 2
567 1 5.1732677407614505e+00 3.0889172999379708e+00 1.1753886058713543e+00 0 0 0
669 1 4.7837792058777211e+00 4.0942700658781845e+00 1.3981543219418520e+00 0 0 1
3865 2 5.5359817837518293e+00 3.8786128300852107e+00 9.4478782867423683e-01 0 0 0
1051 1 4.7834104483904563e+00 3.7888719402396651e+00 3.7553529684748532e-01 0 0 0
1783 1 3.6548912414506964e+00 2.0224584357851072e-01 3.1666894306651594e+00 0 1 0
3588 2 1.6823039482690045e+00 4.1609117610523727e+00 3.5589916655627531e+00 0 0 0
3771 2 8.3925568728000677e+00 2.8462421799725171e+00 3.7508548494144076e+00 0 1 -1
503 1 7.2764706842099640e+00 2.5893973361019107e+00 8.6108024023160568e-01 0 0 0
1506 1 6.2383848284237615e+00 2.9835924418189146e+00 1.0230594889834768e+00 0 0 0
1564 1 7.1654462252725297e+00 3.5284399700808318e+00 3.7977238043557343e-01 0 0 1
1572 1 6.9787653885094194e+00 3.5471529547747345e+00 1.4892357707402968e+00 0 0 1
1671 1 8.8697091997478346e+00 3.0630740517181572e+00 9.0737760363112729e-01 0 0 1
2462 1 1.0993078651013036e+01 4.7516502977863775e+00 1.4981878367349659e+00 0 0 0
2006 1 9.5302797795355723e+00 3.9633512767136638e+00 5.7519251725588338e-01 0 0 0
94 1 8.4067340773142507e-01 5.6089067307215812e-01 3.1887224084149710e+00 0 0 0
2145 1 8.7678917168611044e+00 2.1206557473125818e+00 3.4107886253708424e+00 0 0 0
2468 1 8.8519290408290896e+00 1.8955242268201544e+00 1.1631130376921188e+00 0 0 0
1689 1 8.7944603488156847e+00 2.3046351053372671e+00 4.6600521208914865e+00 0 0 0
1122 1 8.8429867829027842e+00 2.3443756773618973e-01 2.2810193630755954e-01 0 0 0
2649 1 1.0104001750396760e+01 2.7311770857928752e+00 3.2793827739849566e+00 0 0 0
970 1 5.0232067435681342e+00 4.2467346176099321e+00 4.7614168865333699e+00 0 0 0
1000 1 1.2496600789630365e+00 1.8758276636974665e+00 1.6176094444964733e+00 0 0 0
1029 1 5.4195031998385144e+00 6.2601672454794777e-01 9.5944100604423446e-02 0 0 0
817 1 1.0437981932506379e+00 9.7751607871043167e-01 2.2561407159369860e+00 0 1 0
159 1 1.9913019033551982e+00 1.2637967071382776e+00 2.1039181556718662e+00 0 0 0
992 1 1.2365419657162091e+00 1.5681580717130026e+00 3.0634571261158952e+00 0 0 0
966 1 1.8213840439533233e+00 5.7215152777052070e-01 2.9370563056692163e+00 0 0 0
1134 1 2.3850216644054631e+00 1.7035387597967895e+00 2.9737921339967226e+00 0 0 1
1040 1 3.1221783028503971e+00 1.4307348444482144e+00 1.9361473879036024e+00 0 0 0
1358 1 2.7876591134240916e+00 7.2286537806283080e-01 2.5879906663043544e+00 0 1 1
1621 1 6.8611218132551297e+00 3.9090286708271571e+00 3.2281026744390724e+00 0 0 0
3878 2 3.6967359558298165e+00 8.3549417750701227e-01 2.5664635746532447e+00 0 0 1
631 1 3.3571007953181451e+00 1.3019754206168666e+00 3.3210670850475461e+00 0 0 0
3756 2 4.9630156595157295e+00 2.6190008893332611e-01 1.8513818510274258e+00 0 0 1
1357 1 4.2246109503609777e+00 1.7449857580581205e-01 2.2918309864665218e+00 0 1 1
575 1 4.4067718730966270e+00 9.4864912890862563e-01 3.0829171683950052e+00 0 0 0
722 1 4.7832404388374856e+00 1.1075804049999147e+00 1.9891560870276577e+00 0 1 0
1147 1 5.2367730458114252e+00 3.4160217934329223e-01 2.8777265989082088e+00 0 0 1
1351 1 5.8520632163726942e+00 3.5602243744077944e-01 1.9770536851598253e+00 0 1 0
1022 1 2.5460748924912187e+00 4.6706100198095815e+00 3.0230656047624627e+00 0 0 -1
2538 1 9.1424379761525163e+00 8.6705242329174714e-01 9.8381762494188907e-01 0 0 0
1457 1 8.5838812829622988e+00 3.6163442474313037e+00 3.4650468752964771e+00 0 0 0
955 1 6.1633954734733507e+00 4.4765559062252045e+00 3.7829349863181436e+00 0 0 0
2108 1 6.2058757577274708e+00 3.0768524785313334e+00 4.7297882778376357e+00 0 0 0
4228 2 1.2156940951732327e+00 3.5403028500508860e-01 1.7687843641606524e+00 1 0 0
1071 1 5.6402956626248466e+00 1.4357734330987035e+00 4.6695053896647742e+00 0 0 -1
3847 2 7.8181010253949053e+00 4.3889777679486093e+00 3.2918923422962609e+00 0 0 0
543 1 9.5032156530193634e-01 2.4614805030629201e+00 4.0186751607731166e+00 0 0 0
3798 2 9.5730685768985389e+00 3.0051882231692467e-01 3.5606815539985028e+00 0 1 0
4044 2 1.0697377934543278e+01 3.7485399397719505e+00 1.4571949274873026e+00 0 1 0
2544 1 1.0154014720630020e+01 2.8214605824711758e+00 4.5309618161588636e+00 0 0 0
4063 2 8.5209976162321439e+00 1.6696618477430963e-01 2.7885568463035613e+00 0 1 1
1376 1 1.5920513739170814e+00 2.3663119220294657e+00 2.5110551639105432e+00 0 1 0
3606 2 1.5207366769384314e+00 3.3400477999639482e+00 2.2524190609988310e+00 0 0 0
2941 1 2.4226984282285118e+00 3.3114753719846681e+00 2.2573515769243340e+00 1 0 0
3608 2 2.3529860322403264e+00 2.6300453720654575e+00 2.7865012808565806e+00 0 0 0
3128 1 1.7288491675414708e+00 3.3667499313535649e+00 3.0997738636011358e+00 1 0 0
555 1 2.5020310031400430e+00 2.2575400784323412e+00 1.9390980911850337e+00 0 0 0
505 1 3.7241569396344780e+00 2.4298449328228511e+00 1.5610416042523685e+00 0 0 0
663 1 3.1535488113424144e+00 2.3359794172284465e+00 2.7465284083538379e+00 0 0 0
3686 2 3.3391194323580624e+00 2.9930748882403240e+00 2.1287904319467210e+00 0 1 0
1446 1 4.1404533805711683e+00 2.7686289020815074e+00 2.5647043674184307e+00 0 0 0
568 1 3.9902032912408760e+00 1.6383033309040347e+00 2.3900762218714080e+00 0 0 0
3703 2 4.3791925169454791e+00 3.0338298655853171e+00 1.7266726598008122e+00 0 0 0
3533 2 5.2848521384203115e+00 1.2422099507445832e+00 2.7335859459219942e+00 0 1 0
1462 1 4.7908095641388195e+00 2.2379703549321044e+00 1.7755491889385642e+00 0 0 0
1511 1 5.0990009766239606e+00 2.0665858649597593e+00 2.8076278270446910e+00 0 0 0
1561 1 5.6649826342245433e+00 2.6963909782837199e+00 2.0208038479126418e+00 0 0 0
2197 1 6.1652583112199792e+00 1.1193707475050485e+00 2.8460719785213247e+00 0 1 0
566 1 5.6838023314187369e+00 1.5908264041579399e+00 1.9992849316088710e+00 0 0 0
1437 1 6.7267915595695742e+00 2.3621932128250775e+00 1.7400835771672496e+00 0 0 0
2101 1 6.5968795301036325e+00 1.1624534089059624e+00 1.8349632652756991e+00 0 0 1
3946 2 6.7868045870183593e+00 1.7927657966914263e+00 2.5345788563177361e+00 0 1 0
1721 1 6.1352043986443867e+00 2.2732867291582983e+00 2.9318485454500176e+00 0 1 0
2421 1 7.1637137046353470e+00 2.2895691795584150e+00 3.1692218964109520e+00 0 0 0
2689 1 8.4242167054945707e+00 1.1187917564511671e+00 2.8291268608346209e+00 0 0 0
1050 1 5.1345046930762335e+00 2.6610126689756757e+00 7.8008598230655549e-02 0 0 0
1191 1 4.4743606597473118e+00 4.5398659503585641e+00 3.6775484893643906e+00 0 0 0
1696 1 6.9200020896079586e+00 3.8551628428257865e+00 4.2915491809759221e+00 0 0 0
1489 1 9.4528147592008924e+00 1.1244325618313460e+00 3.3252980914856800e+00 0 0 0
2037 1 6.1562646672842831e+00 4.3435318587884932e+00 2.5111716840697049e+00 0 0 0
1031 1 1.0750825174231732e+01 4.0782178892257033e+00 6.6617970185442821e-01 0 0 0
2112 1 1.0053625753078160e+01 4.3578259731591436e+00 1.4776102559665376e+00 0 0 0
1588 1 8.6664640439463785e+00 4.6890795462576857e+00 3.7331293649362438e+00 0 0 0
2141 1 7.3833098334904426e+00 4.4649016340957042e+00 8.8054978459091438e-01 0 0 1
242 1 2.6294833071642945e+00 2.2514086062536517e-01 1.0198863144052117e+00 0 0 1
2592 1 1.0502411080511287e+01 4.6346145724756962e+00 4.4114366727506296e+00 0 0 0
1039 1 2.9133943361792634e+00 4.2403635065728080e+00 2.0993711834853532e+00 0 0 0
4238 2 1.7693326629077539e+00 4.4761055234521949e+00 1.6145681382282235e+00 1 0 0
3619 2 2.4403067983768159e+00 3.8301495541501360e+00 2.9482121850658087e+00 0 0 1
586 1 1.8365219497964329e+00 4.1739581168226234e+00 2.4217417795255960e+00 0 0 0
2132 1 8.6867451016725656e+00 4.0757696571484459e-01 3.6429778140689280e+00 0 0 0
1682 1 6.4828974639489481e+00 3.0640603120377174e+00 3.6337739633913717e+00 0 0 0
1440 1 3.2463207335691600e+00 3.4890374236357142e+00 2.8375341398465244e+00 0 0 0
664 1 3.8659886300226907e+00 3.6678039307376546e+00 2.0020715776583997e+00 0 0 0
550 1 3.5846040526896750e+00 4.6765085133286224e+00 2.7483878855293811e+00 0 0 0
655 1 4.5987717891838509e+00 4.4810330508147445e+00 2.4053182386512919e+00 0 0 1
994 1 4.2248501518981127e+00 3.7546702053159406e+00 3.0047319740301637e+00 0 0 0
1428 1 5.8984231209725371e+00 3.7003336045600688e+00 1.7489298577427987e+00 0 0 0
1613 1 9.0751584275548183e+00 3.9827306157911759e+00 4.4331624574262918e+00 0 0 0
534 1 5.5216425037016679e+00 3.1509203806676203e+00 3.0381113398292228e+00 0 0 0
1271 1 4.8935449978305110e+00 3.5112724042779493e+00 2.2867136798588943e+00 0 1 0
1474 1 9.4573973240387339e+00 4.3172335565346440e+00 3.1526733099634758e+00 0 0 0
3838 2 6.0012537205853382e+00 3.7694341173206753e+00 3.2580824483005846e+00 0 0 0
3127 1 2.4499853611196585e+00 4.0166211850580389e+00 3.8465307611355488e+00 1 0 0
1072 1 7.4170208401666571e+00 2.9499388523969512e+00 2.1720531525169258e+00 0 0 0
1535 1 6.4196920666763289e+00 3.2323716505975284e+00 2.5157201205693136e+00 0 0 0
3964 2 7.1591861029278245e+00 3.1267235783928160e+00 3.0129690312667332e+00 0 1 0
1858 1 7.0197487236720466e+00 1.2071337885850113e+00 4.5904759246807929e+00 0 1 0
1988 1 1.0021095898431200e+01 1.8855399843318865e+00 1.6538188792079285e+00 0 0 0
2076 1 7.3165813116408449e+00 1.2424214916954905e+00 2.9281566362402911e+00 0 0 1
2850 1 9.1918077678844252e+00 1.2779351433422692e+00 1.9958385493228761e+00 0 1 0
1488 1 5.7183869349700593e+00 4.4637163812585197e+00 1.1072698646730503e-01 0 0 0
1607 1 8.4994475557619857e+00 4.3536794136636452e+00 4.8137536045924423e-01 0 0 1
599 1 1.9540763594456656e+00 3.4928966539116241e-01 3.9899284538366024e+00 0 0 0
4129 2 1.0082779039198503e+01 3.6629485494538310e+00 2.9469584319690623e+00 1 0 1
1519 1 7.9895488717857406e+00 2.7289517844636041e-01 2.1448241004987785e+00 0 0 0
4296 2 6.6800997595713456e+00 4.6795495295081375e+00 4.5263954599979082e+00 1 0 0
2631 1 9.6480803182353636e+00 2.0225283823305569e+00 2.5949955487754397e+00 0 0 0
548 1 4.9260754704868193e+00 2.8646412477054710e+00 4.6748011815603414e+00 0 0 0
1880 1 7.7584169333406958e+00 3.7160633353336041e+00 2.7611277678868134e+00 0 0 0
1584 1 6.1936209341821746e-01 1.3547029299987554e+00 4.0036879728278612e+00 0 0 0
3464 2 1.3698338928785483e+00 1.0311765542579723e+00 3.6863292366887279e+00 0 0 -1
652 1 1.5550229774944184e+00 1.5558696406214476e+00 4.3019937073086103e+00 0 0 0
1622 1 7.5224818870508319e+00 3.1993874325572018e+00 3.8007387918356712e+00 0 0 0
991 1 6.9070869055208952e+00 3.6463727937235346e-01 2.4339492412029240e+00 0 0 0
4264 2 2.5770684632382794e+00 7.5573153830162276e-01 3.4162671331882324e+00 1 0 1
1054 1 3.1870209305690556e+00 5.8529605963659814e-01 4.0598150823784458e+00 0 0 0
481 1 2.5545663243377352e+00 1.4183104416618117e+00 3.9408058515145239e+00 0 0 0
235 1 4.1244359332015224e+00 1.0609254052224699e+00 4.0683499355744921e+00 0 0 0
887 1 9.6288228120509345e-01 4.7728276746935233e-01 4.3564386210439574e+00 0 1 0
3856 2 4.6903146709607899e+00 3.6033218830266073e-01 3.6441904327879384e+00 0 0 0
2360 1 5.0681730307630630e+00 6.4947143316406608e-01 4.3897161867973242e+00 0 1 0
1066 1 9.7128613277072802e+00 2.3150634984746978e+00 7.8172428638539504e-01 0 0 0
3587 2 6.9102777561192692e+00 3.9573414621072693e+00 2.2400036023007179e+00 0 0 0
1950 1 6.8921152942534807e+00 7.0161358476874625e-01 3.6687117718626436e+00 0 0 0
4029 2 6.2551097591579934e+00 7.7729717487477323e-01 4.3561543770142208e+00 0 1 0
580 1 5.8641284252548100e+00 3.7331130425649772e-01 3.7196791342318982e+00 0 0 0
1571 1 7.1708807566684607e+00 4.7085637129698679e+00 2.6726379246514402e+00 0 0 0
1538 1 7.7559776133457916e+00 2.2794676939024011e-01 3.2162711130090345e+00 0 0 0
1425 1 7.8628208801389281e+00 2.1542583053384381e+00 3.9799307386460865e+00 0 1 0
1526 1 3.5089093921948988e+00 3.0191827769771593e+00 4.6558069849104804e+00 0 0 0
1242 1 3.7553230944788898e+00 1.5071965981346849e+00 2.5593368330431648e-01 0 1 0
906 1 7.5914127328994567e+00 1.9233707207100310e+00 2.2179692678333782e+00 0 1 0
577 1 2.1145926261404671e+00 1.9423825788056034e-01 2.0008256761580872e+00 0 0 0
3772 2 1.2901925640931520e+00 5.8197819769740922e-01 4.0686636208403226e-01 0 1 1
1536 1 6.7146000506596346e+00 4.6972386878916232e+00 1.6714246772416972e+00 0 0 0
1359 1 6.5147391540820720e+00 8.7820536520908665e-01 1.1980703412233476e-01 0 1 1
2854 1 8.8005562877765939e+00 1.3767471557624864e+00 4.2269831113519114e+00 0 1 0
1098 1 7.2879687972736082e+00 1.6247434656245305e+00 1.3587684875844100e-01 0 0 1
4281 2 9.4609836038752455e+00 8.4187369113249433e-01 6.0858738879506227e-02 0 1 0
1076 1 9.9915971590781698e+00 1.3355864578508412e+00 5.8458418307812543e-01 0 0 0
1441 1 9.0163546273316317e+00 1.6014648342929174e+00 1.1362441670752235e-01 0 0 0
1165 1 1.8614521195288583e+00 2.3623089877244046e+00 3.5682412909290524e+00 0 0 0
802 1 1.8208753402931428e+00 3.3028643143532985e+00 4.2023158982862583e+00 0 1 0
572 1 2.6448035019877070e+00 2.9805591880895754e+00 3.4623168864375500e+00 0 0 0
1167 1 2.4728329684847559e+00 2.4127973109545464e+00 4.4037234060509283e+00 0 0 0
1117 1 3.7542407042975139e+00 3.9494187873576228e+00 1.0937954904919164e-01 0 0 1
3719 2 2.7986507349766221e+00 3.2252815338430896e+00 4.2886691731418738e+00 0 0 -1
4119 2 2.9478705608777873e+00 2.0804727353637520e+00 3.6876665653971021e+00 0 0 0
1007 1 3.5203987014036429e+00 1.9980459787342855e+00 4.3193889280520708e+00 0 0 0
2164 1 3.6951690676341711e+00 2.7518906472745988e+00 3.6533877243280402e+00 0 0 1
3884 2 4.1574896338858043e+00 2.6328406357835283e+00 4.3258376324538945e+00 0 0 1
1062 1 4.1871614253006291e+00 1.8951953898107963e+00 3.4386425214666780e+00 0 0 0
1194 1 5.3452152892152700e+00 1.2738635048953408e+00 3.5732862293928349e+00 0 1 0
814 1 4.7413817549411306e+00 1.9448796570766200e+00 4.3275160840777094e+00 0 1 0
1081 1 4.7035367484995465e+00 2.7838135995794633e+00 3.4811254775580629e+00 0 0 1
860 1 5.6668166314141120e+00 2.3683515262230794e+00 3.8788068528805182e+00 0 1 1
3460 2 7.9581376871932274e+00 1.8464666410915194e+00 3.0660297967665699e+00 -1 0 0
2250 1 7.8660970902680001e+00 1.1054945481210781e+00 3.7770345989423708e+00 0 1 0
2098 1 5.7231246871025450e+00 3.4217651737970858e+00 2.2936747402857871e-01 0 0 1
1573 1 6.2944073034903107e+00 1.5223716409632706e+00 3.8034602704876885e+00 0 0 0
537 1 6.8535785178688196e+00 2.2870988331117492e+00 4.2661818104716485e+00 0 0 0
508 1 5.3018000919465038e+00 4.2838208847097707e+00 3.1627233824109307e+00 0 0 0
964 1 9.2860270655982760e+00 2.6881400481781239e+00 1.7866958806344262e+00 0 0 0
2063 1 9.1945353877766358e+00 2.9526177621436198e+00 2.8509424739029883e+00 0 0 0
124 1 4.4029933542980260e+00 3.5304412126565943e+00 4.0999554959279374e+00 0 0 0
137 1 5.1105324307793421e-01 8.0899365977179538e-01 1.6677152771837533e-01 0 0 1
1505 1 3.4579610338215305e+00 3.7599604517086362e+00 3.8368168996890510e+00 0 0 0
1001 1 6.5976071773226677e+00 2.5830904457635686e+00 7.7112231591113203e-02 0 0 0
1137 1 8.4795082552767855e+00 4.4093303241082271e+00 2.6502597716346878e+00 0 0 1
3121 1 8.2856947021421696e+00 3.2213371179191639e+00 4.5419842068761582e+00 0 0 0
4042 2 2.0687152603124841e+00 9.2537482491416734e-01 4.6994333187613364e+00 0 1 0
1493 1 9.6503196059436043e+00 7.6645132696635099e-01 4.3760975653959919e+00 0 0 0
50 1 3.9794597423011990e+00 4.7268142977821217e+00 1.5513366711848635e+00 0 0 0
628 1 6.0041805598207532e+00 4.1415632171791890e+00 4.8062215863183351e+00 0 0 0
733 1 4.0719902283375209e+00 3.0053881119327976e+00 7.0151624984921687e-03 0 1 0
3867 2 8.3398979808093312e+00 4.5292753764336284e+00 4.7918176544847384e+00 0 0 0
3793 2 6.0786654421556641e+00 1.3879819848100361e-01 3.2453486277992999e-01 0 1 0
574 1 2.9905972421696729e+00 3.9389374772737580e+00 4.7786831485438199e+00 0 0 0
691 1 3.2488471080200072e+00 4.8137958060459267e+00 3.8412663436079519e+00 0 0 0
1463 1 7.1709850951480849e+00 4.7132417491404128e+00 3.7976031030010708e+00 0 0 0
1491 1 2.6672820707350451e+00 1.2499321122447757e-01 4.8128821883693496e+00 0 0 -1
1549 1 8.7652224054155461e+00 3.5569075956772905e-01 4.7622192955134617e+00 0 0 0
878 1 6.7073237711519633e+00 7.7655435525376894e-04 4.5303228543714003e+00 0 1 0
3482 2 7.7671209094888214e+00 4.1740270121293088e+00 1.3408673426431328e-03 0 0 1
2100 1 9.1924674245561100e+00 3.5082632526964384e+00 6.0489147990560106e+00 0 0 0
1626 1 6.1356754807943794e+00 1.9636473480454192e-01 9.0252155176164770e+00 0 0 0
617 1 5.4562240255659500e+00 4.3593529055414200e+00 7.9069922499313128e+00 0 0 0
1171 1 8.1878734985939730e+00 2.7839321765055551e+00 5.5750646060638998e+00 0 0 0
1069 1 2.1013417709624300e+00 1.7620709921924504e+00 5.1739675313058360e+00 0 0 0
1082 1 9.9660892653126041e+00 2.8945111714128178e+00 5.6384318359933596e+00 0 0 0
3584 2 1.0645191432517316e+00 1.5470179569505196e+00 9.3757335311882137e+00 0 0 0
2038 1 1.0250566765447795e+01 3.8889344853552195e+00 5.9719274677341625e+00 0 0 0
4220 2 7.7338421633782648e+00 8.9795265275149139e-01 7.3440048682552375e+00 0 0 -1
3728 2 9.0735794678525039e+00 2.8451491722253133e+00 7.7012522959448884e+00 0 0 0
1628 1 7.8342716575574851e+00 3.9037606842851793e+00 8.1186130676494290e+00 0 0 0
706 1 7.8409969015080028e-01 1.3168731990779952e+00 6.0021539532211143e+00 0 0 0
3609 2 8.2610481246531968e+00 4.6622544501727630e+00 8.3023913240365541e+00 0 0 0
3513 2 1.3805568999650850e+00 1.8374911810067129e+00 5.5726267859104706e+00 0 0 0
842 1 1.3912755948091735e+00 1.0040315943951263e+00 5.1675759859384858e+00 0 1 0
913 1 1.8390188648994756e+00 1.3672466617471035e+00 6.1613137131857689e+00 0 1 0
517 1 4.4973295043059212e+00 4.6528133304982084e+00 9.2738766031429414e+00 0 0 0
1904 1 7.2731236827181176e+00 1.2613566002405707e+00 5.7132175064939483e+00 0 1 0
3611 2 3.2064210417564087e+00 4.9957701851156960e-01 5.4960575338274911e+00 0 0 1
3752 2 2.7311867380204689e+00 1.3224838114390862e+00 5.7930843170645314e+00 0 0 0
526 1 2.2376453150517288e+00 5.5959688012950948e-01 5.6163251768497684e+00 0 0 -1
1080 1 3.0810941023050122e+00 7.9271509125397088e-01 6.3215708285140462e+00 0 0 0
1514 1 5.8251663903835711e+00 2.7840396494676214e+00 8.9660516750179582e+00 0 0 -1
1128 1 3.6772204140035294e+00 1.3659909505327308e+00 5.6260835090155750e+00 0 0 1
1557 1 8.8624914756620434e+00 3.6130105286840837e+00 8.1657075181130949e+00 0 0 0
2053 1 8.1336940892455676e+00 1.6986826647335238e+00 6.0836852934586974e+00 0 0 0
1683 1 4.7236129063982739e+00 6.7147442122498135e-01 6.2841639204810766e+00 0 0 0
1199 1 4.7136038094220938e+00 1.0899333912663876e+00 5.2677762905501844e+00 0 1 0
3749 2 7.5675923366113267e+00 3.0790586429250797e+00 8.3388894180021573e+00 0 0 0
4122 2 5.4759269573766360e+00 7.1423836931638407e-01 5.2375549853584253e+00 0 0 0
1349 1 5.7208906162287567e+00 1.6970734924052491e-01 5.9156803779016300e+00 0 1 0
889 1 6.3717157648979610e+00 7.8211004304022114e-01 5.2290877651638894e+00 0 1 0
1021 1 7.5144720984522682e+00 2.6013095093820842e+00 9.3692254275876081e+00 0 0 0
1654 1 6.5154754818307969e+00 9.1357976619225689e-01 6.3685340781286479e+00 0 0 0
1865 1 4.9369819083291109e+00 1.3049056032584261e-01 8.9621273384007090e+00 0 1 0
662 1 4.3855171524924534e+00 4.7997221791727513e+00 7.4818510305163990e+00 0 0 0
3718 2 8.7280968205936507e+00 5.4202351358248091e-01 8.8424510453126910e+00 -1 0 -1
2612 1 9.8871795978334980e+00 1.9134385146920305e+00 8.3480155828160587e+00 0 0 0
975 1 7.9875835397128681e+00 1.0455464913921830e+00 4.8609816417199028e+00 0 0 0
1566 1 6.0613837320812411e+00 3.5137920968771281e+00 8.2629611934373575e+00 0 0 0
2619 1 9.7902441557619593e+00 4.2146721746436127e+00 6.9823371185049288e+00 0 0 0
231 1 5.3926423809522746e+00 4.6452788956224254e+00 6.8067138955026900e+00 0 0 0
3893 2 9.7072389753910819e+00 4.5143610456205492e+00 6.1607766373507387e+00 0 0 1
3975 2 1.0498484490799530e+01 3.7384610080065341e+00 7.2353881017940900e+00 0 0 -1
3761 2 6.3488511783012740e+00 4.5353457761653484e+00 6.9739123728997150e+00 0 0 0
1087 1 9.1366347158194365e+00 4.7495612981470021e+00 8.3730367729976702e+00 0 0 0
1180 1 1.8449296129938872e+00 2.4543462910541574e+00 5.9860557217563910e+00 0 0 0
1482 1 2.4581220956264014e+00 3.1195879953427434e+00 5.1577082891571804e+00 0 0 0
370 1 1.7780212807679090e+00 4.9660557027158569e-01 8.0723042357684651e+00 0 1 0
675 1 2.0050252537044595e+00 3.5234085474427861e+00 6.2549267669918969e+00 0 0 0
676 1 1.4636924496361003e+00 3.6328185360279894e+00 5.2697096218949797e+00 0 0 0
1114 1 3.0890225344887456e+00 2.2386910456008149e+00 5.2423652977232527e+00 0 0 0
1187 1 3.7071940724505170e+00 2.3123971549100428e+00 6.1097699023101661e+00 0 0 0
659 1 2.9622102570698674e+00 3.0063912895336333e+00 6.1107223998151197e+00 0 0 0
3713 2 3.7267077676687235e+00 3.0407184342463345e+00 5.5724963884084673e+00 0 0 0
698 1 2.7343072649363429e+00 1.9545065991623474e+00 6.4317766393527691e+00 0 0 0
1177 1 4.1946007883530054e+00 2.3454054066203396e+00 5.1940392776302211e+00 0 0 0
1853 1 4.6133230871631232e+00 1.7984078779694830e+00 6.1416039951154167e+00 0 1 1
3123 1 4.7676854384711334e+00 2.7323453510256344e+00 5.8957034298248283e+00 1 0 0
3577 2 5.3921779303687547e+00 2.1137052042322919e+00 6.1717233689171840e+00 0 0 -1
1676 1 5.5442035416141309e+00 2.2680341782232456e+00 5.3175080865280400e+00 0 0 0
1647 1 5.7410240922118927e+00 1.3631989676579170e+00 5.8251550713786342e+00 0 0 0
3707 2 6.0853716527517978e+00 1.0930900246919695e+00 9.1064011775028426e+00 0 0 -1
1438 1 8.3602883644349504e+00 4.2404591194196879e+00 9.0322575630241300e+00 0 0 -1
1153 1 6.4464893565712700e+00 1.9933039267893844e+00 6.3687046621426440e+00 0 0 0
1578 1 1.0543750044256411e+01 4.3588435111903978e+00 7.8495203117637260e+00 0 0 0
998 1 7.1069606523890236e+00 4.2205003009627191e+00 6.6143292717153424e+00 0 0 0
1614 1 4.2643285107495474e+00 3.6290175986716675e-02 8.2164505089813904e+00 0 0 0
2610 1 8.8305310821231124e+00 2.0686826980952278e+00 8.1919487768459014e+00 0 0 0
1688 1 8.3410737113406714e+00 3.8456802863209307e+00 5.3693079670142971e+00 0 0 0
4302 2 1.2806333630646618e+00 3.1030676602017775e+00 6.0277041122488662e+00 1 1 0
2123 1 8.3169415199879460e+00 7.1543565170478796e-01 5.7846818784075511e+00 0 0 0
56 1 2.8117515680524505e+00 1.8546854312947965e+00 9.4747574942284913e+00 0 0 -1
3670 2 1.6669287233866550e+00 1.0778585783503349e-01 7.3042555602904562e+00 0 1 0
1115 1 7.5111299833240945e+00 3.4605100883847055e+00 6.0461675198720446e+00 0 0 0
601 1 2.3970624923958397e+00 4.3477508959739275e+00 5.7001008174198260e+00 0 0 0
1093 1 3.4242867328817006e+00 3.9420326403857922e+00 5.7009777315333254e+00 0 0 0
4130 2 7.6154919619014381e+00 4.4225616846126314e+00 7.3469408368432223e+00 0 0 -1
2088 1 4.3209469560383553e+00 3.5437772441235542e+00 5.1567438560903724e+00 0 0 0
127 1 4.0669023673821831e+00 3.2899372926296748e+00 6.4715161225080138e+00 0 0 0
784 1 6.9132020942681871e+00 4.9593948363586243e-01 7.3089256637841435e+00 0 1 0
1085 1 5.5317341196308263e+00 3.4518806319919095e+00 5.3648436015132086e+00 0 0 0
3016 1 5.0195464645340486e+00 3.7490580324453768e+00 6.2069082443091368e+00 1 0 0
1184 1 6.1269328356707868e+00 3.8809778578495164e+00 6.1811320804238150e+00 0 0 0
1030 1 6.4059288728012724e+00 2.9145477576758583e+00 5.7303711091551275e+00 0 0 0
1504 1 6.8112578101905807e+00 3.8850101081713695e+00 5.3594102842988853e+00 0 0 0
2071 1 7.8144059257392273e+00 3.5101477369416387e+00 7.1033018873070048e+00 0 0 0
2115 1 9.4223435407664020e+00 3.6443719319319945e-01 8.1991607682679835e+00 0 0 0
4030 2 8.3248173311849545e+00 3.2241983546226485e+00 6.3410844699291244e+00 0 0 0