LAMMPS data file via write_data, version 12 Dec 2018, timestep = 454080

4320 atoms
2 atom types

0.0000000000000000e+00 1.9309999999999999e+01 xlo xhi
0.0000000000000000e+00 1.9309999999999999e+01 ylo yhi
0.0000000000000000e+00 9.6549999999999994e+00 zlo zhi
6.6426399999999965e+00 0.0000000000000000e+00 0.0000000000000000e+00 xy xz yz

Masses

1 1
2 1

Atoms # atomic

4263 2 5.3130557080188021e+00 4.2791004657714486e+00 2.1923727878879404e+00 1 0 0
335 1 7.8376765880450550e-01 3.8860989578554709e-03 2.6152871319412250e+00 0 1 0
1433 1 8.6503839826371465e+00 3.9816222391098179e+00 1.4183837612648873e+00 0 0 0
2159 1 9.2369271184573805e+00 2.9921120558385934e+00 4.0266168529300801e+00 0 0 0
1684 1 1.0188710791774717e+01 2.7510641726148162e+00 2.3631466070931668e+00 0 0 0
1502 1 7.6282323491299895e+00 4.1175298952098744e+00 1.8648130853038276e+00 0 0 0
1103 1 7.5867181717717722e+00 1.8870265812680898e-01 4.3402481466377214e+00 0 0 0
2513 1 8.1300687643170999e+00 3.0846639519336366e-01 1.0559452414283479e+00 0 0 0
1979 1 8.5695402775332035e+00 1.9498816356660520e+00 2.4612012965213506e+00 0 0 0
851 1 1.1179815766700654e+00 1.5282365910757347e+00 6.5084689247164629e-01 0 1 0
253 1 1.6790333532954564e+00 7.6195188325963970e-01 1.1958481272222998e+00 0 1 0
1190 1 2.0556853051499648e+00 1.8178499639708434e+00 1.1092917495418297e+00 0 0 1
3918 2 1.8660263793546923e+00 1.8851999172478990e+00 2.0413310956289660e-01 0 1 0
30 1 5.3974844297956244e+00 3.5165937411454014e+00 4.0677188651989038e+00 0 0 0
1127 1 2.0933063497637860e+00 1.0373659021748611e+00 2.3193555598702198e-01 0 0 1
1554 1 2.8873001627060373e+00 1.2538498496603694e+00 8.2191997172720199e-01 0 0 1
4116 2 2.5172649237418949e+00 8.2817632821380460e-01 1.5486077567087908e+00 1 0 -1
95 1 3.3742205066202149e+00 6.0385167257156735e-01 1.5025065895027359e+00 0 0 0
4238 2 1.5774379319087861e+00 4.5297957831220588e+00 1.6066181114971805e+00 1 0 0
2275 1 9.9162853890682126e+00 3.3051064032906843e+00 1.3438680266735175e+00 0 1 0
870 1 3.7851767486940195e+00 1.5252902342335699e+00 1.2998795378171897e+00 0 1 1
1798 1 4.4279210072282886e+00 6.8566319760053895e-01 1.0606498066573251e+00 0 1 0
622 1 1.2056698739734626e+00 3.2454187522104112e+00 7.3238210253044744e-01 0 0 1
1711 1 8.0555849567507067e+00 2.3320498605397746e+00 4.8000466106402734e-01 0 1 0
1615 1 5.4792357638686031e+00 1.0890588174698426e+00 1.1325111485939985e+00 0 0 1
1678 1 8.0085045547128111e+00 2.6542348810230947e+00 3.0446884493764785e+00 0 0 1
987 1 4.7763299747774859e+00 1.5184922913312284e+00 3.4309916201971863e-01 0 0 0
4133 2 9.5254682644328295e+00 4.4747138309573584e+00 4.5349603616938818e+00 0 0 0
1485 1 9.1505250979810437e+00 3.8549109871679416e-01 2.6791236785131982e+00 0 0 0
3468 2 6.3026137844316139e+00 8.1016768894623870e-01 1.2912026750018648e+00 -1 0 1
1519 1 8.0877080203272129e+00 1.6027230866500600e-01 2.2084400261956341e+00 0 0 0
1470 1 7.9933293060343935e+00 2.3230018472135607e+00 1.5329231324821213e+00 0 0 0
1122 1 8.7210702356460281e+00 3.2638931781385744e-01 1.5135764222883030e-01 0 0 0
2131 1 1.0633263884614189e+01 4.4671314242575813e+00 3.3922311227188917e+00 0 0 0
115 1 4.9723474144718049e-01 8.4249374838323643e-01 1.3703487686053943e+00 0 0 0
2081 1 9.6242889734259691e+00 1.9462874719902545e+00 4.0530561069304998e+00 0 0 0
2460 1 9.8080449187256171e+00 3.9206064067690733e+00 3.9149270152605684e+00 0 0 0
3590 2 5.1905070494654124e+00 4.5602752574613792e+00 3.9572721439619198e+00 0 0 -1
1160 1 7.2491533657029130e+00 4.4972032397361128e-01 1.5115466190028073e+00 0 0 0
577 1 2.0815682069784756e+00 1.1817929135380789e-01 1.9466143831913523e+00 0 0 0
3775 2 5.9298699066143286e+00 9.6549032089898817e-02 2.8246690503154350e+00 0 1 0
3750 2 1.4135488141825521e+00 2.4023379794225073e+00 8.9882006583250162e-01 0 0 1
34 1 2.1651556704670423e+00 2.6432868898353776e+00 5.5453850988636122e-01 0 0 0
1065 1 1.7302382410497095e+00 2.8801904727114902e+00 1.5382558282884777e+00 0 0 0
968 1 3.2348757811519411e+00 2.4670103037895608e+00 6.3975620863921545e-01 0 0 1
3708 2 2.8773905251160783e+00 2.0180132394787638e+00 1.2983484407606631e+00 0 0 0
1166 1 2.7823427562042418e+00 3.1158667685066130e+00 1.3686468859835943e+00 0 0 1
3768 2 3.1834607435730002e+00 3.3031531937523417e+00 5.4835904120624035e-01 0 1 0
3676 2 7.5206079505883840e+00 8.5130752703960988e-01 2.3461886563384144e+00 0 1 1
3757 2 4.7053834455030934e+00 1.5245284839758038e+00 1.2228267583138381e+00 0 0 1
1764 1 4.2488873288304179e+00 2.3309794746490136e+00 8.1009791074733883e-01 0 1 0
1617 1 5.3634401418266755e+00 2.0977418484131296e+00 9.7905412639905209e-01 0 0 1
2174 1 3.5564460058916678e+00 2.3520196024504164e-01 5.1728323927551623e-01 0 1 0
1499 1 6.3626619513078051e+00 1.7123483921977811e+00 1.0694397451553279e+00 0 0 1
1544 1 8.1877952675184957e+00 1.3063145681103980e+00 5.7471510686972749e-01 0 0 0
1946 1 9.4059629194342342e+00 3.6041488010673608e+00 2.2073332397184005e+00 0 0 0
1965 1 8.1222976204867905e+00 1.1597458785372734e+00 1.7143717898882598e+00 0 0 0
1145 1 7.8139806253143265e+00 4.0032884062222260e+00 4.2061488725043681e+00 0 0 0
733 1 3.9377939118885807e+00 2.9232440845258290e+00 6.3470308237568732e-02 0 1 0
4242 2 8.8226442978561153e+00 4.4135620748121529e-01 1.8504966370029987e+00 0 0 1
2048 1 1.0377408882894272e+01 3.8805295106839433e+00 2.4573060973590017e+00 0 0 0
3121 1 8.1092535700984083e+00 3.0578099965910575e+00 4.5644037821341676e+00 0 0 0
970 1 4.9005424367512580e+00 4.2478690129984598e+00 4.7949433291612218e+00 0 0 0
1513 1 6.2981602885726709e+00 4.0801692764962274e+00 9.1329635610435522e-01 0 0 0
952 1 7.3437340207315494e+00 1.4874816183056070e+00 1.1577574783278000e+00 0 0 0
656 1 2.4436727603032251e+00 3.7011137947713677e+00 5.2173017258867416e-01 0 0 1
1458 1 5.2972925436941933e+00 6.9860431099334971e-03 1.0590583722795059e+00 0 0 0
4042 2 2.0662692562963478e+00 9.3028989907995541e-01 4.7609750696267765e+00 0 1 0
1527 1 9.8402370673220929e+00 3.1975398381726952e+00 2.1038170897305983e-01 0 0 0
668 1 2.1050267122719508e+00 3.8224721644326172e+00 1.4812764220709616e+00 0 0 0
2201 1 7.8446031247741441e+00 3.3668830309015934e+00 1.1024385507257457e+00 0 1 0
1472 1 8.3815001341747930e+00 3.1688611402343545e+00 2.1341314831792206e+00 0 0 0
1019 1 3.9029161282595615e+00 3.2920082861571500e+00 1.0021019834917617e+00 0 0 0
1198 1 3.1887507818079159e+00 4.0774973056148509e+00 1.1122168599403826e+00 0 1 0
3627 2 4.0826212032647904e+00 4.2326371964180680e+00 8.4876156013494131e-01 0 0 1
1870 1 7.3705289358789052e+00 5.8547435842306428e-01 4.1810701705195708e-01 0 1 1
3503 2 7.1466142534170105e+00 1.5302434349003484e+00 3.7846389166942989e+00 -1 0 2
567 1 5.0219614345737211e+00 3.0206462149286706e+00 1.2162976797832625e+00 0 0 0
669 1 4.6954904735388538e+00 3.9974952456063724e+00 1.4006051687094698e+00 0 0 1
3865 2 5.4197063110035373e+00 3.8397113043676554e+00 8.8453307391317504e-01 0 0 0
1051 1 4.7332453207565246e+00 3.7296108960887451e+00 2.8684576981576199e-01 0 0 0
1783 1 3.5919476574078701e+00 3.1293118222195082e-01 3.1616206918059842e+00 0 1 0
3588 2 1.6098183136671347e+00 4.0964095004885897e+00 3.6290305546532871e+00 0 0 0
3771 2 8.4251814117735933e+00 2.7729153803711117e+00 3.8050040157603258e+00 0 1 -1
503 1 7.1440650568263058e+00 2.4977068041794230e+00 1.0715564783994083e+00 0 0 0
1506 1 6.0917079684155961e+00 2.8041379148451493e+00 1.2755983033646250e+00 0 0 0
1564 1 6.8499392064782842e+00 3.4074314332391693e+00 3.2406139293496816e-01 0 0 1
1572 1 6.8853293637904001e+00 3.4640657289349748e+00 1.4878042826160041e+00 0 0 1
1671 1 8.9459133378196647e+00 3.0930875447233763e+00 9.2016324443248265e-01 0 0 1
2012 1 9.1185144311305777e+00 4.7454669506286491e+00 2.0847030034306075e+00 0 0 0
2006 1 9.4483490996685635e+00 3.9991375247138734e+00 5.9216377386786323e-01 0 0 0
94 1 8.3823866313191786e-01 7.1673255464241170e-01 3.4015000954213064e+00 0 0 0
2145 1 8.6752662610270868e+00 1.9676329431983399e+00 3.5284696452115205e+00 0 0 0
2468 1 8.8701087347287562e+00 1.8665908695965936e+00 1.1389855816855206e+00 0 0 0
1526 1 3.4825403167825248e+00 3.0196777647549249e+00 4.6593210060268158e+00 0 0 0
1441 1 9.1491734851969966e+00 1.5636756898211865e+00 1.6157182578975146e-01 0 0 0
2649 1 1.0106634113918343e+01 2.7555653157230027e+00 3.5371408286994379e+00 0 0 0
50 1 4.0145667721906539e+00 4.7779637311523855e+00 1.5037302970716082e+00 0 0 0
1000 1 1.1847128476728894e+00 1.7676386109832818e+00 1.6856419351052230e+00 0 0 0
1137 1 8.3950947046037889e+00 4.4099051239711118e+00 2.7012419255838558e+00 0 0 1
817 1 7.8703429657718726e-01 1.0435101032499059e+00 2.2995004838485045e+00 0 1 0
159 1 2.0007982138025646e+00 1.2867252973832184e+00 2.0532176411901095e+00 0 0 0
992 1 1.2410555168709230e+00 1.6460017076178282e+00 3.0591502178637127e+00 0 0 0
966 1 1.7015388356900567e+00 5.8831524437373539e-01 2.8001411308805233e+00 0 0 0
1134 1 2.2339982235669220e+00 1.6600719650056575e+00 2.9924410676428423e+00 0 0 1
1040 1 3.0307265625986801e+00 1.4440073653843939e+00 2.0063113745744143e+00 0 0 0
1358 1 2.7146826416496692e+00 6.6983804831553551e-01 2.5684362351461445e+00 0 1 1
1621 1 6.8705883817353408e+00 3.9383729241162220e+00 3.3108702401034380e+00 0 0 0
3878 2 3.5397642966538325e+00 8.7354591192021702e-01 2.4159781603211501e+00 0 0 1
631 1 3.2551347041625220e+00 1.3303823710527451e+00 3.1597566598419466e+00 0 0 0
3756 2 4.8427331197711592e+00 2.9189057452900818e-01 1.8601561191315392e+00 0 0 1
3798 2 9.4141303491124546e+00 2.5209742727902917e-01 3.5291057281501241e+00 0 1 0
575 1 4.3403096496950120e+00 1.0109109275483275e+00 2.9822255088787357e+00 0 0 0
722 1 4.6750430371636105e+00 1.1634686436027704e+00 2.0172720627142500e+00 0 1 0
1147 1 5.1128334726666393e+00 3.9735666350155124e-01 2.6672644969457218e+00 0 0 1
1351 1 5.7999040835707385e+00 5.3055874744866072e-01 1.9764177131412441e+00 0 1 0
574 1 2.9025722968400238e+00 4.0097686897169762e+00 4.7881739941037145e+00 0 0 0
2538 1 9.0741831720109030e+00 7.9836854371367327e-01 1.1248738555951294e+00 0 0 0
1457 1 8.4794682946500739e+00 3.5702748923519128e+00 3.5202897017105319e+00 0 0 0
955 1 6.0797714156413223e+00 4.4104825358725215e+00 3.8381485718141559e+00 0 0 0
1488 1 5.7585025461284474e+00 4.3079906329117579e+00 7.6191352172922267e-03 0 0 0
4228 2 1.1619739261785675e+00 4.1321858192632865e-01 1.9494547799133928e+00 1 0 0
1071 1 5.5447189078954811e+00 1.4334204292963040e+00 4.5922575307313265e+00 0 0 -1
3847 2 7.7228384826139447e+00 4.3388378999343553e+00 3.3777146853567768e+00 0 0 0
1359 1 6.3372949290055516e+00 8.1078803308307867e-01 4.4731286111351837e-01 0 1 1
3688 2 1.9781260504742564e+00 4.1712233781035231e+00 4.7244917988388151e+00 0 1 0
4044 2 1.0635285909478220e+01 3.8278564724307036e+00 1.5844050961606322e+00 0 1 0
2544 1 1.0140589532051115e+01 2.7083869311845201e+00 4.6419850957812061e+00 0 0 0
1689 1 8.6478290812813601e+00 2.1382159284293567e+00 4.6193357977629717e+00 0 0 0
1376 1 1.5538429671632230e+00 2.4452304037605614e+00 2.4926851594056489e+00 0 1 0
3606 2 1.4441614461318966e+00 3.2650237035647556e+00 2.2696805166823917e+00 0 0 0
2941 1 2.3019117689408564e+00 3.2514049051827305e+00 2.3599396786326921e+00 1 0 0
3608 2 2.3633028250955390e+00 2.5408010723698351e+00 2.9035362325832468e+00 0 0 0
3128 1 1.5806968774909311e+00 3.3215999669681553e+00 3.1262048383675913e+00 1 0 0
555 1 2.4588897233316516e+00 2.2778503290977032e+00 2.0135249868877971e+00 0 0 0
505 1 3.5571651444055923e+00 2.4678613740413970e+00 1.6200749155479262e+00 0 0 0
663 1 3.2005667166295755e+00 2.2952024512288354e+00 2.8237982791710508e+00 0 0 0
3686 2 3.0805938367498529e+00 2.9089524175075807e+00 2.2166004092297444e+00 0 1 0
1446 1 4.0951841854438911e+00 2.7827035281326138e+00 2.6044387941107372e+00 0 0 0
568 1 3.9560309755802803e+00 1.7444970569464406e+00 2.3998544745810149e+00 0 0 0
3703 2 4.2522091507216970e+00 3.0193018801492988e+00 1.7863893991469544e+00 0 0 0
3533 2 5.2541136731783471e+00 1.2822608425449573e+00 2.6623354416235454e+00 0 1 0
1462 1 4.6150256891245443e+00 2.2167795817991389e+00 1.7411708530852041e+00 0 0 0
1511 1 4.8996695289709375e+00 2.0391521871617622e+00 2.7332293233321261e+00 0 0 0
1561 1 5.4853885797390465e+00 2.6316215318426419e+00 2.1435427239628382e+00 0 0 0
2197 1 6.0910834192651517e+00 9.6118017875499107e-01 2.8529890211178137e+00 0 1 0
566 1 5.7055414613270186e+00 1.6079023499215273e+00 2.0467447308043236e+00 0 0 0
1437 1 6.5653345262546869e+00 2.1798309168934762e+00 1.9785368307613327e+00 0 0 0
2101 1 6.7176474823710848e+00 1.1554545827312896e+00 1.9364788752071764e+00 0 0 1
3946 2 6.5668618265679219e+00 1.6308677448743170e+00 2.6385060969537815e+00 0 1 0
1721 1 5.9267028557939829e+00 2.1464017964622570e+00 2.9676432819941754e+00 0 1 0
2421 1 7.0037427573689559e+00 2.2271125594011969e+00 3.1233881743698082e+00 0 0 0
2689 1 8.2716935328952452e+00 1.0292015477000078e+00 2.8528951296092213e+00 0 0 0
1029 1 5.3441023242463945e+00 7.2186991232255493e-01 7.1319442899718824e-02 0 0 0
1191 1 4.3093399482570458e+00 4.5617638714575328e+00 3.8647165758182234e+00 0 0 0
1696 1 6.7861428621042208e+00 3.7389821101757095e+00 4.3654844104599340e+00 0 0 0
1489 1 9.2650936335380152e+00 1.1297725361158666e+00 3.3676617179333737e+00 0 0 0
2037 1 6.1437492973728860e+00 4.3625175647295338e+00 2.6774818470377753e+00 0 0 0
1031 1 1.0694461062495291e+01 4.0215479458066694e+00 7.0724962151253890e-01 0 0 0
2112 1 9.9106952158911845e+00 4.3955919285567990e+00 1.5227932249772989e+00 0 0 0
1588 1 8.7189351836916700e+00 4.5817795608061411e+00 3.7872378292313473e+00 0 0 0
2141 1 7.4013882951647059e+00 4.2581142857754752e+00 8.1426548394408027e-01 0 0 1
242 1 2.4887130896275265e+00 2.1119476251133854e-01 8.6977662241116305e-01 0 0 1
2592 1 1.0445809328480960e+01 4.5027853776187374e+00 4.5127249104640415e+00 0 0 0
1039 1 2.7650493857689460e+00 4.2210267794046814e+00 2.1073438916892000e+00 0 0 0
744 1 4.8142247560760598e+00 4.6987131354848364e+00 6.2394619202019252e-01 0 1 0
3619 2 2.2870120324490029e+00 3.9084384517253503e+00 3.0457502369589737e+00 0 0 1
586 1 1.7054627256278465e+00 4.1593993019499349e+00 2.4457795733679006e+00 0 0 0
1050 1 5.0120448269160178e+00 2.5897649700459504e+00 9.8186883566509717e-02 0 0 0
1682 1 6.3466531237185846e+00 2.9578907821606713e+00 3.5948469874221249e+00 0 0 0
1440 1 3.1061859367245233e+00 3.5641707413705936e+00 2.9159840088733953e+00 0 0 0
664 1 3.7439707968129836e+00 3.6685113872789783e+00 2.0453355557311417e+00 0 0 0
550 1 3.5153584415695276e+00 4.5767871206836093e+00 2.7388610402320590e+00 0 0 0
655 1 4.4833829213002279e+00 4.3764181387221388e+00 2.4001906493068375e+00 0 0 1
994 1 4.1926732390971972e+00 3.7536591168086200e+00 3.1417374483419565e+00 0 0 0
1428 1 5.7164200705437125e+00 3.6482723912555155e+00 1.7147460914790871e+00 0 0 0
1613 1 8.8262000804154219e+00 3.8306733500271291e+00 4.5017035303755355e+00 0 0 0
534 1 5.4450216656165322e+00 3.1972094319427198e+00 3.0563180409420028e+00 0 0 0
1271 1 4.8402038969521612e+00 3.4250682427025301e+00 2.2940380082073295e+00 0 1 0
1474 1 9.4191655409615791e+00 4.2422320088236347e+00 3.0449015961687840e+00 0 0 0
3838 2 6.0610516420846157e+00 3.6803255615175905e+00 3.3702095403595012e+00 0 0 0
3127 1 2.4595349677873415e+00 4.1480580989135314e+00 3.8315131470720263e+00 1 0 0
1072 1 7.2593506441773750e+00 2.8750157312463704e+00 2.2003799863233278e+00 0 0 0
1535 1 6.2947647587405395e+00 3.2628888845712432e+00 2.4922256012872026e+00 0 0 0
3964 2 6.9641779996669069e+00 3.1510908220835896e+00 3.0612311181568184e+00 0 1 0
1858 1 7.0161826455839726e+00 1.1119851461415591e+00 4.5398296626152019e+00 0 1 0
1988 1 1.0064642906442156e+01 1.7342181050176999e+00 1.7333674547303253e+00 0 0 0
2076 1 7.1687577652417289e+00 1.1945525939594355e+00 3.0335602970436693e+00 0 0 1
2850 1 9.2142079799086414e+00 1.2889009889410257e+00 2.0811861175955393e+00 0 1 0
1076 1 9.9932730684470155e+00 1.1195395548556153e+00 7.6123124208772541e-01 0 0 0
1607 1 8.3755437727373536e+00 4.3380929145746912e+00 4.7687568383801704e-01 0 0 1
599 1 1.8967570150973945e+00 4.8615368049316399e-01 3.9741030086863032e+00 0 0 0
4129 2 9.8674543581785024e+00 3.4235976063599503e+00 3.0099745315069284e+00 1 0 1
2007 1 1.1178137936853394e+01 4.8032648312798640e+00 2.5992686682685449e+00 0 0 0
1562 1 5.5944990161949457e+00 4.6289627715619011e+00 1.3829063477149612e+00 0 0 1
2631 1 9.6297824255394993e+00 2.0211283061355085e+00 2.8828056778005573e+00 0 0 0
1001 1 6.5178703842395747e+00 2.3698635888880588e+00 3.1212225926035214e-01 0 0 0
1880 1 7.6353345967128590e+00 3.6125819035497546e+00 2.7829052370567422e+00 0 0 0
548 1 4.9201826397819417e+00 2.8540731661194072e+00 4.6613295310727123e+00 0 0 0
3464 2 1.6200624576661955e+00 1.1765754096064396e+00 3.5954328520613368e+00 0 0 -1
652 1 1.4901936008185350e+00 1.6360467245947368e+00 4.3915557674711279e+00 0 0 0
1622 1 7.4451870903547315e+00 3.1302716031111579e+00 3.7843391310203001e+00 0 0 0
991 1 6.8114084219125894e+00 2.5500238702491390e-01 2.5395681169037725e+00 0 0 0
4264 2 2.4369122602772642e+00 8.0077290564523784e-01 3.3625589547880308e+00 1 0 1
1054 1 2.9409231533360067e+00 3.8803814116756552e-01 3.9300950946379225e+00 0 0 0
481 1 2.4216150212146479e+00 1.3589239059435987e+00 4.0600401547997214e+00 0 0 0
235 1 3.8552236727357516e+00 1.0160858670874346e+00 3.9689964745776574e+00 0 0 0
887 1 8.9282602794482713e-01 8.4847137911875981e-01 4.4649106577236841e+00 0 1 0
3856 2 4.4341461788508090e+00 2.7342247718074741e-01 3.3918429983031517e+00 0 0 0
2360 1 4.7580083348454876e+00 6.4625906287773249e-01 4.3736090604263325e+00 0 1 0
1066 1 9.7154759502175132e+00 2.4098735947534595e+00 8.8258355166967406e-01 0 0 0
3587 2 6.9401741407886099e+00 3.8693280543440798e+00 2.3168108940850751e+00 0 0 0
1950 1 6.7282087438235774e+00 5.2815235551539264e-01 3.6827444866501100e+00 0 0 0
4029 2 6.1577586627850822e+00 8.8677410989327310e-01 4.3150266797419521e+00 0 1 0
580 1 5.6094291392834634e+00 4.0997550778539066e-01 3.6834439327353654e+00 0 0 0
2132 1 8.5445693604842070e+00 3.3898471700405347e-01 3.8066313095694357e+00 0 0 0
1538 1 7.5876869662239761e+00 2.0937880301530951e-01 3.2640694542881854e+00 0 0 0
1425 1 7.8068905975603675e+00 2.1754677721395232e+00 3.9688066522545595e+00 0 1 0
4296 2 6.6380717467332193e+00 4.6330932361292421e+00 4.4983794316970735e+00 1 0 0
1242 1 3.7530666246709545e+00 1.5562715243228582e+00 2.6158308016907439e-01 0 1 0
906 1 7.4562793275916244e+00 1.7692850255184300e+00 2.3108254050178534e+00 0 1 0
1463 1 7.1754482084529059e+00 4.8081879495852098e+00 3.8388949053431318e+00 0 0 0
3772 2 1.2717633247474656e+00 5.7647514441026493e-01 4.7902092464780721e-01 0 1 1
1571 1 7.2733010272986895e+00 4.7481709201637106e+00 2.6281386532886724e+00 0 0 0
2084 1 8.0791144681903404e+00 3.3646695972680738e+00 1.0505678712017580e-01 0 0 1
2854 1 8.9096053881186581e+00 1.1785721338551589e+00 4.3195604975962443e+00 0 1 0
1357 1 4.1149485804528858e+00 1.9955340417295381e-01 2.2971939235498198e+00 0 1 1
4281 2 9.4421927235730951e+00 7.8492775191726527e-01 1.1921914775960714e-01 0 1 0
513 1 3.8286493864786619e+00 4.3064337256248404e+00 4.7700004405809144e+00 0 0 0
1536 1 6.6332490703050100e+00 4.5012715619478181e+00 1.7663560526727484e+00 0 0 0
1165 1 1.6953361431926774e+00 2.3615534643463358e+00 3.7018932952233188e+00 0 0 0
802 1 1.7846535874453573e+00 3.4398473014172875e+00 4.2596530523703029e+00 0 1 0
572 1 2.4855007490887893e+00 3.0240380546523502e+00 3.6034059222092916e+00 0 0 0
1167 1 2.4385061504336916e+00 2.3737378722723421e+00 4.4514646481051727e+00 0 0 0
1117 1 3.6530051372317454e+00 3.9419307874019762e+00 1.4482532839715598e-01 0 0 1
3719 2 2.6159426220535784e+00 3.3141501661378463e+00 4.3910024699863781e+00 0 0 -1
4119 2 2.7187337529149911e+00 2.1248657906396602e+00 3.6586764576894457e+00 0 0 0
1007 1 3.4531650888048722e+00 2.0077612798390869e+00 4.2227392602231495e+00 0 0 0
2164 1 3.5455589826147933e+00 2.9155844590791840e+00 3.6312059771745924e+00 0 0 1
3884 2 4.1649637407483233e+00 2.7115273151834196e+00 4.2590555650987731e+00 0 0 1
1062 1 4.0949841444950410e+00 1.9385486364300117e+00 3.4256691620706921e+00 0 0 0
1194 1 5.1344610361746321e+00 1.3752836517833720e+00 3.6108507489692743e+00 0 1 0
814 1 4.6195604967452670e+00 1.8260508611315340e+00 4.3405288933616530e+00 0 1 0
1081 1 4.6297035259569341e+00 2.7719770328203270e+00 3.5914539104160781e+00 0 0 1
860 1 5.5441643058932426e+00 2.2684414618960491e+00 3.9236832243110382e+00 0 1 1
3460 2 7.8126586334140073e+00 1.7637870138560416e+00 3.1976328677575583e+00 -1 0 0
2250 1 7.9049597364889133e+00 1.1615700515027176e+00 3.8262449375650900e+00 0 1 0
2098 1 5.7531663369624244e+00 3.2443186647606437e+00 3.9941905555708884e-01 0 0 1
1573 1 6.2983477269241952e+00 1.4770795794539979e+00 3.6929929907138721e+00 0 0 0
537 1 6.7471856378220920e+00 2.1621994253956265e+00 4.3410145430341691e+00 0 0 0
508 1 5.2217582235023929e+00 4.2317241215380381e+00 3.1762307874099553e+00 0 0 0
964 1 9.2283471050723023e+00 2.5714655782191294e+00 1.8812353093984520e+00 0 0 0
2063 1 9.1547915680144456e+00 2.9075716544112193e+00 2.9909897632643601e+00 0 0 0
124 1 4.3280406954552806e+00 3.5599167617258929e+00 4.2027065332185520e+00 0 0 0
137 1 4.3648025217702219e-01 7.6656626793827931e-01 3.4147072137747014e-01 0 0 1
1505 1 3.4234946048877148e+00 3.8834006764626281e+00 3.8031666418102836e+00 0 0 0
3040 1 2.8442361170132511e+00 4.6193464013928098e+00 1.7540144090486753e-01 1 0 0
717 1 1.5840035629519986e+00 4.2798529493851776e+00 6.9903686784219721e-01 0 0 1
2108 1 5.9856474593610063e+00 2.8639144333438069e+00 4.7000975154157310e+00 0 0 0
21 1 1.2290777179732895e+00 2.4293157126385680e+00 9.3211613395658335e-03 0 0 0
2100 1 9.2200549167822885e+00 3.6081817783598309e+00 6.0217846345632777e+00 0 0 0
1626 1 5.9558026984317616e+00 1.9871419891151110e-01 9.0635544933949994e+00 0 0 0
617 1 5.2437620361061450e+00 4.2348352635818252e+00 7.8448314170279554e+00 0 0 0
1171 1 8.1412392095932997e+00 2.5858698002053324e+00 5.5542305851737881e+00 0 0 0
1069 1 2.1601730450126531e+00 1.7482197285050656e+00 5.2809348084584444e+00 0 0 0
1082 1 9.9809253929972357e+00 2.8712831051038328e+00 5.6824469080915225e+00 0 0 0
3584 2 9.7811505350039141e-01 1.5259342667971325e+00 9.3959312637471708e+00 0 0 0
2038 1 1.0256462936427557e+01 3.8586161826368568e+00 5.9326967247037539e+00 0 0 0
4220 2 7.6143937327655449e+00 8.6149974608864910e-01 7.2712745947281698e+00 0 0 -1
3728 2 8.9853822146775837e+00 2.7951252706104470e+00 7.7491822978741158e+00 0 0 0
1628 1 7.7418434873228206e+00 3.8453553015913511e+00 8.0198804382134270e+00 0 0 0
1148 1 1.2639634531206523e-01 7.4557695247779915e-02 8.6263544858971777e+00 0 0 0
2165 1 9.8719724936016018e+00 2.0830426914163995e+00 6.3566924441331212e+00 0 0 0
3513 2 1.3858146611715578e+00 1.9009016797725060e+00 5.6389684559468662e+00 0 0 0
842 1 1.2993795151101735e+00 1.1117667668666911e+00 5.3886690919568645e+00 0 1 0
913 1 1.8145061691188631e+00 1.3997270256317178e+00 6.2899819916998041e+00 0 1 0
517 1 4.3850403759324292e+00 4.4995502890264669e+00 9.2914911919800378e+00 0 0 0
1904 1 7.3847308698856446e+00 1.1889575850862615e+00 5.7409405380056420e+00 0 1 0
3611 2 3.1577084020699235e+00 5.5232264719695567e-01 5.5269294105352786e+00 0 0 1
3752 2 2.8489862218665145e+00 1.4676968012578913e+00 5.7685565870534843e+00 0 0 0
526 1 2.2988304697165831e+00 7.4048213559137621e-01 5.6502568262796471e+00 0 0 -1
1080 1 3.0769848827104704e+00 8.8925172829559174e-01 6.3848723156191136e+00 0 0 0
1514 1 5.8277898255003278e+00 2.6869065434577668e+00 8.9861289970368023e+00 0 0 -1
1128 1 3.7531020143727778e+00 1.2679600712897485e+00 5.6352538720171212e+00 0 0 1
1557 1 8.7914567105540780e+00 3.5456899414414642e+00 8.1613713260443692e+00 0 0 0
2053 1 8.1722818992108319e+00 1.6834491359383839e+00 6.2894883876756875e+00 0 0 0
1683 1 4.7222619757281201e+00 6.8212538708235781e-01 6.1410357537055331e+00 0 0 0
1199 1 4.6710831656382927e+00 1.2399132229905616e+00 5.1835899824534559e+00 0 1 0
3749 2 7.4720422189167186e+00 3.0476863997538230e+00 8.3060500213680619e+00 0 0 0
4122 2 5.3744060458449159e+00 7.1371738996014011e-01 5.0994258973530808e+00 0 0 0
1349 1 5.6040053371768872e+00 1.9588765272730868e-01 5.9683273134667374e+00 0 1 0
889 1 6.2695373835158774e+00 6.2912585068761784e-01 5.1137610800344167e+00 0 1 0
1021 1 7.3123353822488646e+00 2.5197257514990477e+00 9.3456019475057435e+00 0 0 0
1654 1 6.5033189312535260e+00 7.9315795562864932e-01 6.1698433845638281e+00 0 0 0
4231 2 4.5510100765170414e+00 4.6765060535300664e+00 6.4624267641125792e+00 1 0 0
1627 1 7.4339059638799059e+00 1.1236489031784620e-01 7.8287909161084182e+00 0 0 0
3718 2 8.6833742995031891e+00 3.9315464856063848e-01 8.8644148929256978e+00 -1 0 -1
2612 1 9.7847498562042308e+00 1.8615955658141468e+00 8.4709506507691312e+00 0 0 0
1958 1 9.9860242079755732e+00 2.1333838251799970e+00 9.5363851947000455e+00 0 0 -1
1566 1 5.9385419154584564e+00 3.4971142262646269e+00 8.1381076544907600e+00 0 0 0
2619 1 9.6420191356520437e+00 4.1457738427969870e+00 6.8637450030498037e+00 0 0 0
3518 2 2.9685692544041880e+00 1.4944793896174730e-01 6.8237321146210599e+00 0 1 0
3893 2 9.5705497805732698e+00 4.4998963741000111e+00 6.0447985580463079e+00 0 0 1
3975 2 1.0352599030362214e+01 3.6592158556198129e+00 7.1292970630762111e+00 0 0 -1
3761 2 6.1868276815295014e+00 4.6726822437969018e+00 6.7697092135246484e+00 0 0 0
1963 1 7.5533501239997420e+00 1.9525718491226842e+00 4.9997251866445875e+00 0 0 0
1180 1 1.9262547387431828e+00 2.4424108904065149e+00 6.0131355527578023e+00 0 0 0
1482 1 2.4458284570981772e+00 3.1353188232357070e+00 5.1791328065202871e+00 0 0 0
370 1 1.7382687665644416e+00 5.6891396826614882e-01 8.2251166345789262e+00 0 1 0
675 1 1.9794907240414152e+00 3.5301702981674601e+00 6.1086771436417990e+00 0 0 0
676 1 1.3646689610853484e+00 3.5802232483011367e+00 5.2229802459995858e+00 0 0 0
1114 1 3.1730765543142967e+00 2.1966819860317659e+00 5.2954023303908251e+00 0 0 0
1187 1 3.7617732358727873e+00 2.3003464368417408e+00 6.1914044524063021e+00 0 0 0
659 1 2.9671086609117889e+00 2.8738110584079690e+00 6.0853584529450560e+00 0 0 0
3713 2 3.5959775107807301e+00 2.8684062563374337e+00 5.5316830077754311e+00 0 0 0
698 1 2.7094324401341598e+00 1.9766975410434129e+00 6.4514808335829184e+00 0 0 0
1177 1 4.2444700160672895e+00 2.1791635201668811e+00 5.2243789755331109e+00 0 0 0
1853 1 4.7007330972483530e+00 1.7082390891173649e+00 6.1535770147046316e+00 0 1 1
3123 1 4.7421859403664426e+00 2.7275169652811595e+00 6.1287240500808347e+00 1 0 0
3577 2 5.5474918101434332e+00 2.1983612865029420e+00 6.1559255837867592e+00 0 0 -1
1676 1 5.3847949177343857e+00 2.1924528803648156e+00 5.2900238519395604e+00 0 0 0
1647 1 5.6827336943905520e+00 1.2736901671250680e+00 5.8066454409330008e+00 0 0 0
3707 2 6.0674135320015203e+00 9.9280660374072149e-01 9.2127816048868478e+00 0 0 -1
1438 1 8.2399391903863499e+00 4.2005411209902430e+00 8.9699826251791155e+00 0 0 -1
1153 1 6.2704485321544761e+00 1.8830382238827461e+00 6.4541002680482427e+00 0 0 0
1578 1 1.0383954189915665e+01 4.2960967298770267e+00 7.8069110122681105e+00 0 0 0
998 1 6.9830480557714765e+00 4.1840042457102626e+00 6.4797089473636031e+00 0 0 0
231 1 5.3003609568195316e+00 4.6486023192289831e+00 6.8559764894650739e+00 0 0 0
2610 1 8.7276871957957436e+00 2.0910041315722943e+00 8.2726682587513736e+00 0 0 0
1688 1 8.2843679649313184e+00 3.6835519795145917e+00 5.3949343484698886e+00 0 0 0
3391 1 9.6437151138767785e+00 5.2550347190592483e-01 7.0892197226763241e+00 0 1 0
2123 1 8.2693096363903749e+00 5.4753161834292730e-01 5.9360580681698893e+00 0 0 0
1491 1 2.6159819017659105e+00 1.4353603447531496e-01 4.8973280439146150e+00 0 0 -1
624 1 5.7592493582054214e+00 1.7526745351224078e+00 9.5847329169985738e+00 0 0 0
1115 1 7.5114431380496125e+00 3.2970495248548524e+00 6.0053259913764592e+00 0 0 0
601 1 2.3198286659295166e+00 4.3753825202549068e+00 5.5902376265219518e+00 0 0 0
1093 1 3.3446931705449430e+00 3.7940706219071885e+00 5.7167526950754901e+00 0 0 0
4130 2 7.6782662619643158e+00 4.4005586450411771e+00 7.1803952209635762e+00 0 0 -1
2088 1 4.2939482574718699e+00 3.3857008646378302e+00 5.3321252354322359e+00 0 0 0
127 1 3.9257903726239753e+00 3.2837455511293543e+00 6.4481449795645922e+00 0 0 0
784 1 6.6764603148623882e+00 5.8420868643771828e-01 7.1998532120944807e+00 0 1 0
1085 1 5.3460660065820989e+00 3.4787083063208439e+00 5.4896031325904069e+00 0 0 0
3016 1 4.8198048004843397e+00 3.8463110776215554e+00 6.3682537567884188e+00 1 0 0
1184 1 5.9092334178098778e+00 3.9094566676344997e+00 6.2178766933283924e+00 0 0 0
1030 1 6.2056969832336284e+00 2.7880217092699069e+00 5.7624776561576265e+00 0 0 0
1504 1 6.7917949587800015e+00 3.8610174844554384e+00 5.5444477086119699e+00 0 0 0
2071 1 7.5822372099706623e+00 3.5399050203551301e+00 6.9954926368020791e+00 0 0 0
2115 1 9.0466170095659351e+00 3.1504798014331054e-01 7.9898176417512063e+00 0 0 0
4030 2 8.3995994188686627e+00 3.2269288518909272e+00 6.1258551844742728e+00 0 0 0
1129 1 9.7594359409508531e+00 2.3696273540077497e+00 7.5753492121985930e+00 0 0 0
1086 1 8.2158612841775227e+00 2.9211942823767245e+00 8.8215430312565637e+00 0 0 0
1095 1 7.1645872138428039e+00 1.2252580434457809e+00 7.9930474921926349e+00 0 0 0
914 1 2.2835140413370660e+00 3.0474682528600339e-01 9.0174113572389025e+00 0 1 0
4175 2 8.2817258129440816e+00 1.9226744798807685e-01 7.6293708320454785e+00 0 1 0
857 1 2.7467072492009659e-01 2.9915257255839611e-03 6.9715796086941628e+00 0 1 0
70 1 2.8330837388294543e+00 3.0659845669547008e+00 9.3948394033296339e+00 0 0 -1
4297 2 2.5231998710750849e+00 2.1924010015438650e-01 8.0886809057437272e+00 1 1 1
323 1 1.7732953350147129e+00 3.3331629671826017e+00 9.5041898331644781e+00 0 1 -1
2465 1 1.1049222196728843e+01 4.1388648542179194e+00 5.2785699133058515e+00 0 0 0
179 1 1.0299994072682832e+00 1.8934764882992436e+00 6.8839742160026205e+00 0 0 0
545 1 1.8340145879641179e+00 1.2284045460125466e+00 7.3530989416063637e+00 0 0 -1
3196 1 8.9317840561822348e-01 1.1009536291399289e+00 7.7596658443961815e+00 1 0 0