LAMMPS data file via write_data, version 12 Dec 2018, timestep = 615120

4320 atoms
2 atom types

0.0000000000000000e+00 1.9309999999999999e+01 xlo xhi
0.0000000000000000e+00 1.9309999999999999e+01 ylo yhi
0.0000000000000000e+00 9.6549999999999994e+00 zlo zhi
8.9984599999999979e+00 0.0000000000000000e+00 0.0000000000000000e+00 xy xz yz

Masses

1 1
2 1

Atoms # atomic

4263 2 4.8509671507835357e+00 4.3687883075899681e+00 2.0977322153759466e+00 1 0 0
2544 1 9.3553372369679977e+00 2.7966926886331787e+00 4.6221760206757150e+00 0 0 0
1433 1 8.2118487628711083e+00 4.0448113041985039e+00 1.4942903981383213e+00 0 0 0
2159 1 8.4150605655208643e+00 2.7556563492877517e+00 4.0904599620617681e+00 0 0 0
1684 1 9.5768297365368564e+00 2.8757961739327538e+00 2.5952520981589386e+00 0 0 0
1502 1 7.1796381525582813e+00 4.2097202330305681e+00 1.9945106091118885e+00 0 0 0
2034 1 1.0311543301750637e+01 2.5522494167072867e+00 4.0153595072846286e+00 0 0 0
3775 2 5.4989427177431214e+00 1.1298469143694266e-01 2.7077880390509241e+00 0 1 0
1979 1 8.1207172468464961e+00 1.8104587231904843e+00 2.5167758585266884e+00 0 0 0
2386 1 9.7209015991205394e+00 7.3155379415508304e-01 1.7390306338959083e+00 0 1 1
253 1 1.0060235225154439e+00 7.9364653864623036e-01 1.2136633693462122e+00 0 1 0
1190 1 1.5032746580443064e+00 1.8133255754191722e+00 1.1246454492437685e+00 0 0 1
3918 2 1.3157934911032747e+00 1.7899151887791400e+00 2.5979481591102521e-01 0 1 0
30 1 4.8910796141867099e+00 3.6677651078915470e+00 3.9138665308830767e+00 0 0 0
1127 1 1.5245623065203371e+00 9.1708662066594515e-01 3.0857858110806285e-01 0 0 1
1554 1 2.3611326464399109e+00 1.2951061376833159e+00 8.8359150306928902e-01 0 0 1
4116 2 1.8785631390949908e+00 8.6266262318054199e-01 1.4986886327919671e+00 1 0 -1
95 1 2.9031996002948075e+00 5.0486488455613676e-01 1.5787005263431524e+00 0 0 0
2167 1 1.0244958449111287e+01 3.4809812850296993e+00 4.5473074695618765e+00 0 0 0
2275 1 9.4587367671351252e+00 3.2969885699827111e+00 1.4894881794442290e+00 0 1 0
870 1 3.3562424222704479e+00 1.7049126381846467e+00 1.3099232772760503e+00 0 1 1
1798 1 3.9008982939751666e+00 7.7122418247599478e-01 1.0412632047167500e+00 0 1 0
628 1 5.5251810615882704e+00 4.1055414277720379e+00 4.7438211787314453e+00 0 0 0
1711 1 7.6248907971787645e+00 2.3252066051139644e+00 7.2725640998618246e-01 0 1 0
1615 1 4.9738745508315265e+00 1.0969753387354868e+00 1.1156076486643689e+00 0 0 1
1678 1 7.4952830281038239e+00 2.6054665479346815e+00 3.0219673489505992e+00 0 0 1
987 1 4.2107544937819696e+00 1.5521377964827741e+00 3.0638224444244816e-01 0 0 0
1538 1 7.1745681027257016e+00 2.1892983011394354e-01 3.2931969560020962e+00 0 0 0
4042 2 1.5953706360138118e+00 8.3248205144880694e-01 4.8053436723826390e+00 0 1 0
3468 2 5.8875938942641346e+00 8.8171580951010720e-01 1.2725506963002788e+00 -1 0 1
2646 1 9.9516637607134264e+00 1.0443096002194305e+00 2.7506921552373371e+00 0 0 1
1470 1 7.6376929162351290e+00 2.4292762015998632e+00 1.7737516756924261e+00 0 0 0
3867 2 7.8174099096977905e+00 4.3707540281734802e+00 4.6602035717192276e+00 0 0 0
2131 1 1.0227278704586787e+01 4.5006809716246039e+00 3.3710862859134765e+00 0 0 0
1441 1 8.4829602066344183e+00 1.4436452638629844e+00 2.2004901084401568e-01 0 0 0
2081 1 8.9912137564095733e+00 1.8525271851868799e+00 4.2235106228396075e+00 0 0 0
2460 1 9.3796123587786244e+00 3.6679882455207364e+00 4.0181316069218287e+00 0 0 0
3590 2 4.9175982122123436e+00 4.4508360962767926e+00 4.1796737167297175e+00 0 0 -1
1160 1 6.9331291955289069e+00 5.0766847956526795e-01 1.5559939238200924e+00 0 0 0
1505 1 2.8140844979158608e+00 3.7851078273353362e+00 3.6837968172255642e+00 0 0 0
1570 1 1.0261206001763345e+01 2.8981217047636663e+00 8.2579030646463125e-01 0 0 1
4056 2 1.0250370288193794e+01 2.4945369887561242e+00 3.1659639271703495e+00 0 0 0
34 1 1.5147201139067672e+00 2.5843529899818698e+00 4.5621303726858431e-01 0 0 0
3121 1 7.6026139290162869e+00 2.9376301830149223e+00 4.6467828235326616e+00 0 0 0
968 1 2.7716858528251880e+00 2.3650322880926686e+00 5.9562953060484225e-01 0 0 1
3708 2 2.5450029109684040e+00 2.0308104710668027e+00 1.3474696761161267e+00 0 0 0
1166 1 2.2073600477041158e+00 2.9242838770373702e+00 1.2180563370761532e+00 0 0 1
3768 2 2.7406699256012459e+00 3.2856583893201918e+00 6.0181320109965863e-01 0 1 0
3676 2 7.0075596498401183e+00 8.5183732862639738e-01 2.3013475221050248e+00 0 1 1
3757 2 4.2891693886636508e+00 1.6692341989231290e+00 1.2138968299924664e+00 0 0 1
1764 1 3.8254962637625058e+00 2.4260574313830712e+00 8.3465513831550364e-01 0 1 0
1617 1 4.9343229490963560e+00 2.1680722660789664e+00 9.1505090684354196e-01 0 0 1
2174 1 2.9206506861539165e+00 4.2326545908175106e-01 5.1569408784202120e-01 0 1 0
1499 1 5.9022464739397753e+00 1.7553056440767147e+00 1.0257579127240857e+00 0 0 1
1544 1 7.6852231611643527e+00 9.8684174674190883e-01 7.7005616834718127e-01 0 0 0
1946 1 8.8445862352154840e+00 3.7700272405069692e+00 2.3084296810818685e+00 0 0 0
1965 1 7.7853714177423177e+00 1.0328428610531117e+00 1.8664000080047778e+00 0 0 0
1145 1 7.4387178964883720e+00 3.9030029931573575e+00 4.0743064493658085e+00 0 0 0
1463 1 6.7270033598294958e+00 4.7860233255095057e+00 3.8851354705775520e+00 0 0 0
4242 2 8.1443357345062068e+00 2.9735616062821579e-01 2.0711761768043027e+00 0 0 1
2048 1 9.8654995463369346e+00 3.8487119633827125e+00 2.5369074657590165e+00 0 0 0
577 1 1.3133486384293938e+00 6.7900448139880845e-02 1.8731604337966716e+00 0 0 0
2084 1 7.5304189123881908e+00 3.3340676718422149e+00 2.5564413790408885e-01 0 0 1
1513 1 5.9090142679392654e+00 4.1532412320894849e+00 8.4139855013281484e-01 0 0 0
952 1 7.0163571661601161e+00 1.5231930035771490e+00 1.3107443748276766e+00 0 0 0
656 1 2.0178830700390114e+00 3.7361560397010081e+00 4.9061279569169330e-01 0 0 1
2130 1 1.0185966235742104e+01 1.6632033451175958e+00 2.5874685247590801e-01 0 0 1
1001 1 5.8397104096763046e+00 2.5067990193247742e+00 2.3427126602704851e-01 0 0 0
2440 1 1.1563516506373631e+01 4.7172523985771626e+00 1.7687188049168141e+00 0 0 0
1858 1 6.5059536312343083e+00 1.0946536962467956e+00 4.6230822089683681e+00 0 1 0
2201 1 7.4264834669720043e+00 3.4210852569508843e+00 1.2777634185851399e+00 0 1 0
1472 1 7.9067762655840514e+00 3.3708134852517331e+00 2.2448875826230030e+00 0 0 0
1019 1 3.5160604715911346e+00 3.4184751802131554e+00 9.7686229208123043e-01 0 0 0
1198 1 2.7508701209713866e+00 4.0603675948322362e+00 1.0965529522805235e+00 0 1 0
3627 2 3.7189377138127857e+00 4.3016963220744397e+00 6.8439967379343625e-01 0 0 1
1870 1 6.6427594425291661e+00 6.8916246125026581e-01 5.1977101825990890e-01 0 1 1
3503 2 6.6045405536582109e+00 1.4815270488854688e+00 3.8400364253371184e+00 -1 0 2
567 1 4.5394312325386927e+00 3.0807709698691190e+00 1.2480764491985410e+00 0 0 0
669 1 4.3010447409753816e+00 4.1062553799613228e+00 1.3545909325245395e+00 0 0 1
3865 2 5.0010376149878413e+00 4.1685275048041115e+00 8.2517884789920404e-01 0 0 0
1051 1 4.3394072630812675e+00 3.8391960747349496e+00 2.0463770086781419e-01 0 0 0
1783 1 2.9716575966400618e+00 1.8171900633008531e-01 2.7699356240633652e+00 0 1 0
1122 1 8.2441612928815591e+00 3.8709163670428492e-01 1.1214976003906002e-02 0 0 0
3771 2 7.6829059249840661e+00 3.1215015828457400e+00 3.7821575155257254e+00 0 1 -1
503 1 6.6923502245265656e+00 2.4930400812155407e+00 1.1239417667663643e+00 0 0 0
1506 1 5.7142746692544373e+00 2.8721526444616248e+00 1.2695221106349743e+00 0 0 0
1564 1 6.4394227712965861e+00 3.3924951759754443e+00 4.8163929107664111e-01 0 0 1
1572 1 6.4422568548867964e+00 3.6739217416168799e+00 1.6103674180525980e+00 0 0 1
1671 1 8.4119215334564839e+00 3.1852812670868946e+00 1.0147670634644319e+00 0 0 1
2035 1 1.1150227980584363e+01 3.7633100569476672e+00 3.6033065870205427e+00 0 0 0
2006 1 9.0695140251738735e+00 3.9457491657635142e+00 7.3917647613621362e-01 0 0 0
2120 1 9.7547590278534582e+00 2.9248112447623487e-01 3.4663709557409796e+00 0 0 0
2145 1 8.2246598080708520e+00 1.7953485688219666e+00 3.5498248607429908e+00 0 0 0
2468 1 8.3376014504349278e+00 1.8225193724241999e+00 1.3610282546690238e+00 0 0 0
1165 1 1.2492622089513952e+00 2.2440430164930367e+00 3.6068595101187073e+00 0 0 0
386 1 3.4900377444128159e+00 2.2164313472026942e-03 3.7599572321423418e+00 0 1 0
2649 1 9.3542529498335814e+00 2.6486768865745507e+00 3.6040428461654597e+00 0 0 0
1103 1 7.1972477053453714e+00 1.7284273126659233e-01 4.5375783349160823e+00 0 0 0
1493 1 9.9991255934296461e+00 8.1705268817455678e-01 4.4442106495827582e+00 0 0 0
1137 1 8.0831423936504514e+00 4.3656445448667407e+00 2.7410517969413704e+00 0 0 1
2108 1 5.6041855936109481e+00 3.0194895550891325e+00 4.7374381637841569e+00 0 0 0
159 1 1.3539345501566591e+00 1.2163245209923363e+00 2.0303299672984365e+00 0 0 0
3793 2 5.5655647221574007e+00 2.6178665847866139e-02 2.9111093113110037e-01 0 1 0
966 1 1.1674516219854776e+00 6.4865289621983679e-01 2.9279626520770154e+00 0 0 0
1134 1 1.8227997277933667e+00 1.6508276683056666e+00 2.9325698290231079e+00 0 0 1
1040 1 2.5631276162501253e+00 1.4170181434552067e+00 1.9420651010375227e+00 0 0 0
1358 1 2.1006585265828241e+00 5.9781548688869002e-01 2.3863898727247235e+00 0 1 1
1621 1 6.3490621004948613e+00 3.8650336269929944e+00 3.2545053642846544e+00 0 0 0
3878 2 3.3545494789780110e+00 1.0350267507830542e+00 2.0599893113796015e+00 0 0 1
631 1 2.7657724138150428e+00 1.1965051743002486e+00 3.0141291455397177e+00 0 0 0
3756 2 4.4987985255906286e+00 4.5532254774050429e-01 1.6033324507455777e+00 0 0 1
887 1 4.2619351747695200e-01 5.8864767985398980e-01 4.2886238223137623e+00 0 1 0
575 1 3.7756379077067779e+00 9.6459064090357638e-01 2.9220419748602184e+00 0 0 0
722 1 4.2545705016492814e+00 1.2460201313145671e+00 1.9711114612483889e+00 0 1 0
1147 1 4.6681466278189419e+00 4.8402208909933159e-01 2.7002155019517526e+00 0 0 1
1351 1 5.3018732439000207e+00 5.5916438409405844e-01 1.9147151127793189e+00 0 1 0
1029 1 4.5268466110060475e+00 5.9666031136369579e-01 8.6014926969303754e-02 0 0 0
2538 1 8.6479792077586204e+00 7.2553690478260469e-01 1.3781081098020964e+00 0 0 0
1457 1 8.2934316094006846e+00 3.6762430449154317e+00 3.4955493548582894e+00 0 0 0
955 1 5.7007624235832299e+00 4.4299924804590045e+00 3.7500443890903794e+00 0 0 0
1562 1 5.1862225463567517e+00 4.8112489633760926e+00 1.3557380950790381e+00 0 0 1
970 1 4.3549076550261319e+00 4.1335236060732816e+00 4.7438708744564488e+00 0 0 0
1983 1 9.8668164188700711e+00 1.6275362138426794e+00 3.6264514042176303e+00 0 0 0
3847 2 7.4421959038999494e+00 4.4100323251942646e+00 3.3446402726565156e+00 0 0 0
1071 1 5.0860594908340335e+00 1.2582847791617384e+00 4.6453597543076510e+00 0 0 -1
2171 1 1.0184067812769847e+01 3.4107777741368168e+00 3.4316851347999910e+00 0 0 0
2555 1 9.8566641646959017e+00 1.8337177997672505e+00 4.7024472257450984e+00 0 0 0
1090 1 3.2836392404036525e+00 4.3379303981625994e-01 4.7525452706651778e+00 0 0 0
4281 2 8.8355004848730321e+00 6.3739636801224930e-01 5.3633408929394344e-01 0 1 0
513 1 3.4280985731389704e+00 4.5711128912891894e+00 4.6855469673233969e+00 0 0 0
691 1 2.7669686604986783e+00 4.7723068052766919e+00 3.8588028852177323e+00 0 0 0
2941 1 1.8474232187012873e+00 3.1974796712594986e+00 2.3094195936129491e+00 1 0 0
3608 2 1.7572791326372736e+00 2.5342970879310269e+00 2.9232379430820448e+00 0 0 0
991 1 6.3446388976927741e+00 2.4123347197454600e-01 2.4629215632260442e+00 0 0 0
555 1 1.9623576365617397e+00 2.2281327969860620e+00 1.9571544124769169e+00 0 0 0
505 1 3.1167975524269367e+00 2.7335524142389334e+00 1.7417741722310698e+00 0 0 0
663 1 2.5835703856304266e+00 2.3323100970581683e+00 2.8016712526865830e+00 0 0 0
3686 2 2.5365693932270763e+00 3.4327111365465131e+00 1.8641630302195975e+00 0 1 0
1446 1 3.6613400252815893e+00 2.8336750809573745e+00 2.5837855145391910e+00 0 0 0
568 1 3.4587228636967513e+00 1.8252218010776964e+00 2.3289961986007750e+00 0 0 0
3703 2 3.8660554909806968e+00 3.0882530854678754e+00 1.7442412534714773e+00 0 0 0
3533 2 4.9077913033909919e+00 1.2849810657488245e+00 2.6352737720201018e+00 0 1 0
1462 1 4.1729350428928624e+00 2.2823392257458308e+00 1.8045413244038149e+00 0 0 0
1511 1 4.4603951987486781e+00 1.9916723964837841e+00 2.8155590271467994e+00 0 0 0
1561 1 5.1018819878624893e+00 2.5683486261002257e+00 2.1389587757968145e+00 0 0 0
2197 1 5.6592354769087727e+00 9.5217709599526601e-01 2.8857150467008776e+00 0 1 0
566 1 5.3313726582866314e+00 1.5845259984627131e+00 2.0086889828082959e+00 0 0 0
1437 1 6.1483670770397465e+00 2.2620031550929141e+00 2.1043144783303154e+00 0 0 0
2101 1 6.2451598789811538e+00 1.1760625277707302e+00 2.0104600239836863e+00 0 0 1
3946 2 6.0921309301595361e+00 1.6447559041394715e+00 2.7146384159395684e+00 0 1 0
1721 1 5.4562722932758172e+00 2.1154726202857463e+00 2.9984410711415515e+00 0 1 0
2421 1 6.5379533041793199e+00 2.1654155176965104e+00 3.2621659048818228e+00 0 0 0
2689 1 7.9229100661533778e+00 8.7363468601229033e-01 2.9456477252711202e+00 0 0 0
4044 2 1.0169572080319401e+01 3.7453367120559640e+00 1.6719648139253609e+00 0 1 0
1191 1 4.1892589387752199e+00 4.4962129411757079e+00 3.7855118449415754e+00 0 0 0
1696 1 6.3836028016357425e+00 3.7791648316060864e+00 4.2752299197504833e+00 0 0 0
1489 1 8.9109245557076822e+00 9.7106244060015479e-01 3.5491426162208817e+00 0 0 0
2037 1 5.7184601981725640e+00 4.2722854860499107e+00 2.4913132953235717e+00 0 0 0
1031 1 1.0175416472727640e+01 4.0512628240112205e+00 8.3948186236156008e-01 0 0 0
2112 1 9.4842787019796546e+00 4.3566203163242916e+00 1.6154690320322214e+00 0 0 0
1588 1 8.2757929924635807e+00 4.5986566584342023e+00 3.8207632845510244e+00 0 0 0
2141 1 6.9577423499911628e+00 4.2952806174352212e+00 8.5852653099754717e-01 0 0 1
242 1 2.0517710924974177e+00 1.5880722377103243e-01 9.7733961678920378e-01 0 0 1
2592 1 9.8013880431856002e+00 4.5324842482389478e+00 4.4629158691020683e+00 0 0 0
1039 1 2.3786700768838887e+00 4.3004655483596421e+00 2.1810691082451759e+00 0 0 0
1527 1 9.3884163532087559e+00 3.1555092434954437e+00 2.5785196593995707e-01 0 0 0
548 1 4.4243313358334744e+00 2.8848485652283586e+00 4.6451307911447106e+00 0 0 0
2513 1 7.7659527871562952e+00 6.0577456342897601e-02 1.2082012218892961e+00 0 0 0
1076 1 9.3717139177502133e+00 1.3937520959904295e+00 8.4239240793556147e-01 0 0 0
1682 1 5.7216307543870633e+00 3.0328519558537281e+00 3.7302764252770904e+00 0 0 0
1440 1 2.7910929723807780e+00 3.3724555206883462e+00 2.7256273027805271e+00 0 0 0
664 1 3.3203070857535284e+00 3.8344566762870982e+00 1.9679045702592393e+00 0 0 0
550 1 3.1051704293647386e+00 4.3940148487451784e+00 2.8449566882850870e+00 0 0 0
655 1 4.0480775805290579e+00 4.5610951251274550e+00 2.3683620042563609e+00 0 0 1
994 1 3.9674198371891376e+00 3.6542946576147628e+00 3.1373701084591046e+00 0 0 0
1428 1 5.3435066151277644e+00 3.7517189087170975e+00 1.6749725948631982e+00 0 0 0
1613 1 8.4040248681514136e+00 3.7813274296371175e+00 4.5663814839140917e+00 0 0 0
534 1 4.9137665484244959e+00 3.0652486241087606e+00 3.0302660793809957e+00 0 0 0
1271 1 4.4748022793388289e+00 3.5591519416026527e+00 2.1721141383522822e+00 0 1 0
1474 1 9.1375646599621838e+00 4.2931873963795812e+00 3.2191734633804781e+00 0 0 0
3838 2 5.5010899630262848e+00 3.6658333244414023e+00 3.2360140392956285e+00 0 0 0
1359 1 5.5916627706187096e+00 8.5071916217170140e-01 3.3044829453347740e-01 0 1 1
1072 1 6.8249277611040604e+00 3.0050306015246582e+00 2.3142874454314408e+00 0 0 0
1535 1 5.8062907155498547e+00 3.2390315564254921e+00 2.5557555059364074e+00 0 0 0
3964 2 6.5506818641690492e+00 3.0652079177207265e+00 3.1296594675005709e+00 0 1 0
744 1 4.4301833757725131e+00 4.8086806136725908e+00 5.8313955430866693e-01 0 1 0
1988 1 9.2793926766865802e+00 1.7132283094289433e+00 1.8936370851178732e+00 0 0 0
2076 1 6.6997788536730685e+00 1.1024272332847236e+00 3.0340703066106305e+00 0 0 1
2850 1 8.8397623593831582e+00 9.6768680257268380e-01 2.4364481782083645e+00 0 1 0
2642 1 1.0191109099011072e+01 2.0268455843480488e+00 2.3872848277790375e+00 0 0 0
1607 1 7.9070524390454668e+00 4.4524961656678066e+00 4.8214216620821959e-01 0 0 1
599 1 1.4735732404256341e+00 5.4423647258732544e-01 4.0021049754700195e+00 0 0 0
4129 2 9.1604125927009346e+00 3.4746882318534364e+00 3.1338582262477570e+00 1 0 1
4228 2 3.6119094809805785e-01 4.2367792792053405e-01 1.6821064863428714e+00 1 0 0
3730 2 9.9089099739478304e+00 2.5697159624324311e+00 1.6409770068216494e+00 0 0 -1
2631 1 9.1407139507758135e+00 1.8134472612381261e+00 2.9508146851446662e+00 0 0 0
4296 2 6.1434749037347922e+00 4.6198059973344989e+00 4.5128397039386527e+00 1 0 0
1880 1 7.3128730387030831e+00 3.6388725529912977e+00 3.0256487053706000e+00 0 0 0
1488 1 5.2620709840372113e+00 4.4989701567390901e+00 1.7895022827149182e-02 0 0 0
3464 2 1.2415550343301853e+00 1.2978122747858771e+00 3.5364843253541780e+00 0 0 -1
652 1 1.0108464946545417e+00 1.4996887696366636e+00 4.3404794183447466e+00 0 0 0
1622 1 6.8390990398376710e+00 2.9449753785965265e+00 3.9193326478633770e+00 0 0 0
2515 1 1.0169335603737588e+01 1.8258502908519700e+00 1.2645613056700544e+00 0 0 0
4264 2 1.9542902402107902e+00 7.9436845272611967e-01 3.2703469662924811e+00 1 0 1
1054 1 2.5097006504597412e+00 4.4715985660073865e-01 3.7972427132822686e+00 0 0 0
481 1 2.0840698179363364e+00 1.3695700641959374e+00 3.9341411225689265e+00 0 0 0
235 1 3.4073742646796337e+00 1.1002684825268478e+00 3.9424308044564293e+00 0 0 0
1117 1 3.2047504213672342e+00 3.8906883115704978e+00 9.1502557117657479e-02 0 0 1
3856 2 4.2259727961040214e+00 3.7145406054215024e-01 3.4431289974098327e+00 0 0 0
2360 1 4.3349664439993534e+00 5.6399139262042763e-01 4.3076845810461544e+00 0 1 0
1066 1 9.2684339265811584e+00 2.3960040902104129e+00 1.0497314367817416e+00 0 0 0
3587 2 6.6339249808097440e+00 3.8553928522703540e+00 2.4758085489415453e+00 0 0 0
1950 1 6.3104800890897099e+00 5.5883313372206078e-01 3.7656125336512036e+00 0 0 0
4029 2 5.7024606696008142e+00 6.7998777293959245e-01 4.4052810484319824e+00 0 1 0
580 1 5.2220355774235019e+00 3.6736288238238474e-01 3.6952722233612834e+00 0 0 0
1439 1 1.0456633046581754e+01 2.9837990127872867e+00 2.1082918224621809e+00 0 0 0
2132 1 8.0805815900432059e+00 1.1115067874066227e-01 3.8612727164944887e+00 0 0 0
1425 1 7.3146587871915587e+00 2.0259481160562700e+00 4.0188971400247731e+00 0 1 0
2506 1 1.0922584157367115e+01 4.0184965329253490e+00 2.5281116420963006e+00 0 0 0
1242 1 3.1796259026097600e+00 1.4603404804337230e+00 2.2134706208006044e-01 0 1 0
906 1 7.0274424639014832e+00 1.8206504238845382e+00 2.3282319478432858e+00 0 1 0
3707 2 5.9391810584851426e+00 1.6415354993118849e+00 1.4784923485364546e-01 0 0 0
3772 2 6.7809699288399772e-01 6.6371462706128481e-01 3.8642164899143161e-01 0 1 1
1973 1 1.1007564921540471e+01 3.8089648475159379e+00 1.5007858983107674e+00 0 0 0
3030 1 1.1153276790917268e+01 3.7285310582135094e+00 5.1087249750197949e-01 0 0 0
2854 1 8.3546382037269940e+00 1.0684564726515555e+00 4.4399746959334632e+00 0 1 0
1357 1 3.7953240559189281e+00 3.3337856619987694e-01 2.0905492325862109e+00 0 1 1
3619 2 2.0685601215580487e+00 3.7583538421352749e+00 3.0670055917222565e+00 0 0 1
574 1 2.5009263007198550e+00 3.9552453282355464e+00 4.7960238528654333e+00 0 0 0
4016 2 1.1633559686650660e+01 4.4520868418364818e+00 4.4938969813294811e+00 0 0 0
971 1 8.4312343565982850e+00 2.5899635951604085e+00 1.5943137099083993e-01 0 0 0
3040 1 2.4003752933147267e+00 4.6900312296730311e+00 1.2226285968915759e-01 1 0 0
572 1 2.1153962614548432e+00 3.0431134743654042e+00 3.5213801382179040e+00 0 0 0
1167 1 2.0708336885540337e+00 2.3596892782325476e+00 4.5332052866841490e+00 0 0 0
4132 2 1.1167835558940148e+01 4.5749183548080952e+00 3.3014775353490924e+00 0 0 0
3719 2 2.1278071169797768e+00 3.3269679945983510e+00 4.3755553071505462e+00 0 0 -1
4119 2 2.3985237244631294e+00 2.1972525820411479e+00 3.6497923199572684e+00 0 0 0
1007 1 3.0098534671043056e+00 1.9992143862996841e+00 4.3498195132565298e+00 0 0 0
2164 1 3.1152799647518394e+00 2.8082307231856252e+00 3.6174257531577938e+00 0 0 1
3884 2 3.6859364580390030e+00 2.6646815493154015e+00 4.3972737539865987e+00 0 0 1
1062 1 3.5908721784315976e+00 1.9389261154738933e+00 3.3250570623590132e+00 0 0 0
1194 1 4.6908443404511280e+00 1.2985814082732816e+00 3.5292770580865596e+00 0 1 0
814 1 4.1600517339561627e+00 1.7842888284119480e+00 4.2552405101432189e+00 0 1 0
1081 1 4.2007253840571153e+00 2.7722217636554833e+00 3.6556944547251633e+00 0 0 1
860 1 5.1185382193133675e+00 2.2491985396892673e+00 4.1500585083990753e+00 0 1 1
3460 2 7.3697943924260780e+00 1.7283800825835924e+00 3.2116668088018123e+00 -1 0 0
2250 1 7.4184401216570208e+00 1.0142200847245608e+00 3.9277727471470363e+00 0 1 0
2098 1 5.2511109226409154e+00 3.4080754405635307e+00 3.5558149147751889e-01 0 0 1
1573 1 5.7693271929346928e+00 1.4493791100358835e+00 3.7922722970022864e+00 0 0 0
537 1 6.2133280413129262e+00 2.2011591401352337e+00 4.3027913272968492e+00 0 0 0
508 1 4.8455354073631893e+00 4.2847218568726486e+00 3.0439283094653957e+00 0 0 0
964 1 8.7619268143183380e+00 2.6801614529774640e+00 2.0014686903704884e+00 0 0 0
2063 1 8.4751295776480209e+00 2.7142664925290725e+00 3.0340708303855624e+00 0 0 0
124 1 3.7068911054036748e+00 3.6321002556670936e+00 4.1290727960505054e+00 0 0 0
2667 1 1.0785622728059099e+01 4.5872854688203342e+00 4.2428046988775190e+00 0 0 0
1536 1 6.1986069454180681e+00 4.7091149000807615e+00 1.6215484945883700e+00 0 0 0
2444 1 9.6030868481938967e+00 3.3040514889361933e-01 7.0823881610758499e-01 0 0 0
1098 1 6.8430056842295164e+00 1.7057011939023969e+00 2.5912149173746191e-01 0 0 1
1471 1 9.0615547214701859e+00 1.6266984634744533e-01 4.2329141037307698e+00 0 0 0
3601 2 1.0029290030289712e+01 2.4818099093356394e+00 5.8835337998416601e-02 -1 0 1
4133 2 8.9638432010073537e+00 4.4169474281157663e+00 4.2897505348384577e+00 0 0 0
1519 1 7.3696504991862151e+00 5.9187246537186822e-02 2.3027553598843462e+00 0 0 0
2823 1 1.0984617356308675e+01 2.9361921125718671e+00 3.0301516667545405e+00 0 1 0
1972 1 1.1280289018876459e+01 3.7226811261940611e+00 4.7301094052209676e+00 0 0 0
1491 1 2.1585028872000307e+00 1.2209256856026625e-01 4.7930904883029504e+00 0 0 -1
1526 1 2.9641561209206770e+00 2.9949066643806508e+00 4.7489636663353050e+00 0 0 0
1050 1 4.5343251165523455e+00 2.6891793132643738e+00 9.7650414007772718e-02 0 0 0
50 1 3.5420396656375019e+00 4.8009348788541253e+00 1.4114060922559843e+00 0 0 0
4177 2 3.4205905827728893e+00 1.2852707775102625e+00 4.7730809035051074e+00 0 1 0
2462 1 1.0423170395628214e+01 4.6791802300652243e+00 1.5932539421615137e+00 0 0 0
835 1 2.7285508810664694e-01 6.5004392000917968e-02 8.5571211623272803e-01 0 1 0
1689 1 8.0546113196733220e+00 2.0033146302045566e+00 4.7810131548727703e+00 0 0 0
1376 1 1.1006656300907918e+00 2.3536332941492137e+00 2.4621062311282254e+00 0 1 0
1571 1 6.6919645105083241e+00 4.8102256278429802e+00 2.8405285259229385e+00 0 0 0
351 1 1.0648085344104972e+00 1.5299046405285943e-03 4.8075311177871294e+00 0 1 -1
3482 2 7.2519620916968748e+00 4.3559169512176688e+00 2.7776890692051803e-04 0 0 1
2100 1 8.7257479091721422e+00 3.4916863758674253e+00 6.1781773874503987e+00 0 0 0
3391 1 9.1035407608353545e+00 6.2459930878961778e-01 7.1835419449355422e+00 0 1 0
617 1 4.9258472447189643e+00 4.4531459720515869e+00 7.9678634955506791e+00 0 0 0
1171 1 7.6488657050493192e+00 2.4627933848456505e+00 5.6800140736331031e+00 0 0 0
1069 1 1.6324791692133558e+00 1.6440877119100670e+00 5.2025430042004803e+00 0 0 0
1082 1 9.4827778385971087e+00 2.9058132591430881e+00 5.7119510218522516e+00 0 0 0
1836 1 5.0251852625152305e+00 1.7757663922138525e-01 8.1612835282524294e+00 0 1 0
2038 1 9.8508496864633877e+00 3.9402946526421578e+00 6.0628873557243823e+00 0 0 0
4220 2 7.1192948103676770e+00 1.1488457432014956e+00 7.5382139765851957e+00 0 0 -1
3728 2 8.3724556973926330e+00 2.9164320772630381e+00 8.1942337790648736e+00 0 0 0
1628 1 7.2189032437241831e+00 3.8888682763168498e+00 8.1300974532706682e+00 0 0 0
2622 1 1.0418534092872191e+01 3.3726353534072726e+00 9.3577195656047252e+00 0 0 0
2165 1 9.3909145204433244e+00 1.9797555054645966e+00 6.2962153189665173e+00 0 0 0
1549 1 8.4422737480703187e+00 3.1461215691146760e-01 5.2783796329757360e+00 0 0 0
842 1 7.7817721858605882e-01 9.9561091300754767e-01 5.2335779434312188e+00 0 1 0
913 1 1.1828511891512248e+00 1.4409429037384882e+00 6.2397871637940954e+00 0 1 0
517 1 4.0042960966826193e+00 4.6795948366478823e+00 9.3129221314489303e+00 0 0 0
1904 1 6.6438473019616149e+00 1.2048059692682187e+00 5.7287088497579610e+00 0 1 0
3611 2 2.5536596991184135e+00 3.2727946846686418e-01 5.5529783704728892e+00 0 0 1
3752 2 2.2864588628638467e+00 1.3384269068190195e+00 5.6929379268077458e+00 0 0 0
526 1 1.6922816973326560e+00 6.9947024465667718e-01 5.6140755224732377e+00 0 0 -1
1080 1 2.4375481118170459e+00 7.7411024791893612e-01 6.2993342434652000e+00 0 0 0
1514 1 5.3197080926520588e+00 2.8104699956695880e+00 9.0469288173088209e+00 0 0 -1
1128 1 3.3186906637601443e+00 1.0992314132179573e+00 5.6477680470641838e+00 0 0 1
1557 1 8.1979410462944724e+00 3.7583581531415908e+00 8.3127410119243308e+00 0 0 0
2053 1 7.5676836739218603e+00 1.6177836236626464e+00 6.3703122220941619e+00 0 0 0
1683 1 4.2317499969992625e+00 6.7279328618838485e-01 6.2299705861816781e+00 0 0 0
1199 1 4.2287072403441064e+00 1.2225709880033913e+00 5.2279888693277909e+00 0 1 0
3749 2 7.0889200311800078e+00 3.0704073974694435e+00 8.5157624696089709e+00 0 0 0
4122 2 4.8606713391388663e+00 6.3415957437355108e-01 5.3636003663258975e+00 0 0 0
4297 2 1.9252295767547050e+00 1.4429891122355110e-01 8.0655984639387643e+00 1 1 1
889 1 5.7660418761608323e+00 7.3528185919667566e-01 5.2757079581512247e+00 0 1 0
724 1 4.0388497061852666e+00 3.3971050423907891e-02 5.4100113123064233e+00 0 1 0
1654 1 5.9156857969331726e+00 7.1454030801962420e-01 6.3668900984313774e+00 0 0 0
2364 1 9.3328887912881164e+00 9.0790962929120078e-01 6.1515216461199191e+00 0 1 0
1626 1 5.3694862091970261e+00 3.2149790138874834e-01 9.1076226690649253e+00 0 0 0
1865 1 4.2716657300759096e+00 6.1737585133596555e-02 8.9155775942865425e+00 0 1 0
2612 1 9.0888574956253478e+00 1.9391650879121252e+00 8.4249598074972596e+00 0 0 0
624 1 5.1635339341388695e+00 1.8222294558423349e+00 9.4831113165665979e+00 0 0 0
1566 1 5.5360269327317333e+00 3.6189151431220972e+00 8.2633638095433604e+00 0 0 0
2619 1 9.3481365031377734e+00 4.1520066154462985e+00 6.9909469382215192e+00 0 0 0
2528 1 1.0944585944215332e+01 3.9670207570142226e+00 8.5732441907201089e+00 0 0 -1
4123 2 1.0175230873785511e+01 2.7517108475110601e+00 6.2864822782452539e+00 0 0 -1
3975 2 9.9630876772733341e+00 3.5910029455310375e+00 7.3519178617508398e+00 0 0 -1
3761 2 5.6657775350905606e+00 4.5878065932585574e+00 6.9088026148030837e+00 0 0 0
2621 1 1.0043706136325218e+01 1.1518527645301981e+00 7.1676071030830730e+00 0 0 0
1958 1 9.3078815314366672e+00 2.0518926277337699e+00 9.6005307912284596e+00 0 0 -1
1482 1 1.7742870192627702e+00 3.2325092121509775e+00 5.1455284662750680e+00 0 0 0
370 1 1.1407715815624073e+00 5.9805990377345164e-01 8.1985728394909572e+00 0 1 0
891 1 3.8344058907838274e-01 7.6496046845380117e-01 6.8177548765705378e+00 0 1 0
1627 1 7.0428945845884785e+00 4.0045283235655860e-01 7.9965479474165253e+00 0 0 0
1114 1 2.5533485874634128e+00 2.1459702096827242e+00 5.4111294346491787e+00 0 0 0
1187 1 3.2304009977381059e+00 2.1225827672269642e+00 6.1775656472136857e+00 0 0 0
659 1 2.3539716641182538e+00 2.9602847403536194e+00 6.0473794797776002e+00 0 0 0
3713 2 3.1874101717736409e+00 2.7871735062317722e+00 5.5902957882478788e+00 0 0 0
698 1 2.1778688719197428e+00 1.9629882135976149e+00 6.3801952257354602e+00 0 0 0
1177 1 3.6654554291521380e+00 2.1232369629275269e+00 5.2345446783086578e+00 0 0 0
1853 1 4.1517285921132654e+00 1.7451511393460759e+00 6.0990134945308343e+00 0 1 1
3123 1 4.2328677377059112e+00 2.7441235917187856e+00 5.9732145794632272e+00 1 0 0
3577 2 4.9923880220988295e+00 2.2856873205443300e+00 6.1589655850672438e+00 0 0 -1
1676 1 4.8323802781571823e+00 2.1306999538186955e+00 5.2837051890135589e+00 0 0 0
1647 1 5.1165442735015931e+00 1.3006550478970202e+00 5.8318638641789224e+00 0 0 0
730 1 2.3229302405334287e-01 6.9719266583542314e-02 7.6816162227948555e+00 0 1 -1
1438 1 7.8473746878925716e+00 4.3692942272347812e+00 9.0601347537237142e+00 0 0 -1
1153 1 5.7318549341504470e+00 2.0116264963439474e+00 6.5093113040181443e+00 0 0 0
1578 1 9.8270102896398424e+00 4.3424923421420996e+00 7.8843670602010958e+00 0 0 0
998 1 6.5332196021374997e+00 4.1170313387821800e+00 6.6089172979954833e+00 0 0 0
231 1 4.7899558350665128e+00 4.6077137480451666e+00 6.8269304951598109e+00 0 0 0
2610 1 8.0344654281824148e+00 2.1221847814779293e+00 8.3404900647157945e+00 0 0 0
1688 1 7.6480171038826334e+00 3.7948277208124086e+00 5.3229237362574375e+00 0 0 0
2433 1 1.0437485534191536e+01 3.2677714878627069e+00 5.5771954434479429e+00 0 0 0
2123 1 7.6127297021847102e+00 4.7738489130716916e-01 5.9469259160828267e+00 0 0 0
1533 1 1.0774016793149743e+00 2.1820101198953163e+00 7.7553167884052803e+00 0 0 -1
2158 1 9.6386759664655113e+00 4.2005461212060737e+00 9.5617682830105792e+00 0 0 0
1115 1 7.0424251907870170e+00 3.3369673364930112e+00 6.0510439325932008e+00 0 0 0
2669 1 9.4821479029100271e+00 1.6242020267677018e-01 5.3449882967086246e+00 0 0 0
1093 1 2.8135434035992306e+00 3.9262468302475240e+00 5.8192543175043276e+00 0 0 0
4130 2 7.0921449627318429e+00 4.5587467346444885e+00 7.1590927081428042e+00 0 0 -1
2088 1 3.7337872005588961e+00 3.5639364661276165e+00 5.3406672856263517e+00 0 0 0
127 1 3.4322588206486770e+00 3.2094571028903993e+00 6.3934167448348100e+00 0 0 0
784 1 6.2111422485741858e+00 6.4559517767341412e-01 7.4417655245464704e+00 0 1 0
1085 1 4.8832259361499482e+00 3.4497376870068610e+00 5.3805848047415941e+00 0 0 0
3016 1 4.3267155774345003e+00 3.8077066491705605e+00 6.2735872094800786e+00 1 0 0
1184 1 5.4644876546408323e+00 3.9742078219374029e+00 6.1983229195018206e+00 0 0 0
1030 1 5.6993670165881589e+00 2.8028105584005112e+00 5.7606641063355060e+00 0 0 0