LAMMPS data file via write_data, version 12 Dec 2018, timestep = 88440

4320 atoms
2 atom types

0.0000000000000000e+00 1.9309999999999999e+01 xlo xhi
0.0000000000000000e+00 1.9309999999999999e+01 ylo yhi
0.0000000000000000e+00 9.6549999999999994e+00 zlo zhi
1.2937699999999985e+00 0.0000000000000000e+00 0.0000000000000000e+00 xy xz yz

Masses

1 1
2 1

Atoms # atomic

597 1 3.7525360101467892e-01 6.6575815000924210e-01 4.1814764470355881e-01 0 0 0
237 1 2.9440301939541902e-01 9.6011134062370251e-01 1.3661197015940547e+00 0 0 0
3602 2 8.2670708857221413e+00 1.9414762583277523e-01 3.8072518332381575e+00 0 0 0
1218 1 1.2336717947441893e+00 6.5748182989767168e-01 1.1505109101957789e+00 0 1 0
3622 2 2.0375741171506259e+00 6.3212022548279700e-01 7.9398745519529912e-01 0 0 1
1785 1 8.6310350600530921e+00 2.7845192228408799e-01 2.2462568267477190e+00 0 1 0
967 1 1.3122811795662459e+00 1.4789675865958762e+00 5.0145337629695463e-01 0 0 0
3205 1 2.2915823030244011e+00 1.7218804483287220e+00 8.6033693760097651e-01 1 1 0
4250 2 2.5194535537963914e+00 4.5461853302614070e+00 4.3549136824948702e+00 1 0 1
851 1 2.9664569045738847e+00 9.2513759986580857e-01 6.2864881770811587e-01 0 1 0
253 1 3.7056472229562605e+00 2.2097536697453016e-01 1.1443195249963281e+00 0 1 0
1190 1 4.0025530850220497e+00 1.2292200331407566e+00 1.0221949123232141e+00 0 0 1
3918 2 3.6890011448622975e+00 1.3613856003345139e+00 2.2509842397646607e-01 0 1 0
30 1 7.0846654920073178e+00 4.0251324544259592e+00 3.9227310493094545e+00 0 0 0
1127 1 3.9934491841330053e+00 5.3736568691165265e-01 1.6719208026060489e-01 0 0 1
1554 1 5.0231925967198183e+00 1.2136664568466771e+00 8.2951742951819918e-01 0 0 1
4116 2 4.6548217220143018e+00 8.7949682977664623e-01 1.5599560687490590e+00 1 0 -1
95 1 5.5733455524416069e+00 4.4401128603815815e-01 1.7359003543239215e+00 0 0 0
2174 1 5.8508607485668493e+00 4.2977679159088789e-01 6.3849458049931951e-01 0 1 0
1458 1 7.6756881365343963e+00 4.7136544832801613e-01 8.6581820172111301e-01 0 0 0
870 1 5.8660633100219979e+00 1.4656890579061186e+00 1.3908833499365387e+00 0 1 1
1798 1 6.6855128780377839e+00 9.6598708189937976e-01 1.0435409381588683e+00 0 1 0
17 1 1.7938287953837924e+00 6.0384087882401266e-02 1.8414222067077810e+00 0 0 0
887 1 3.1241850591973277e+00 8.0077836383088449e-02 4.3200055922003830e+00 0 1 0
1615 1 7.6041547959813798e+00 1.5222642362969863e+00 1.0574909792280256e+00 0 0 1
1402 1 6.8215561314610653e+00 3.2642337973041746e-01 1.8564903486686013e-01 0 1 1
3793 2 8.3634016861524554e+00 2.9951579221039243e-01 3.1657107537818985e-01 0 1 0
767 1 8.6679109992282477e+00 4.7533553636115283e-01 1.2182209548307734e+00 0 1 0
1359 1 8.5728978099419582e+00 1.1791527338727497e+00 5.2328615673535261e-01 0 1 1
3468 2 8.4852712431726953e+00 1.7265540655711435e+00 1.1404178818822535e+00 -1 0 1
465 1 4.1072453510772250e-01 1.8548193884819910e+00 8.2581164853974431e-01 0 1 1
3587 2 8.5004776251533212e+00 4.7580448709452838e+00 2.2557201150496859e+00 0 0 0
657 1 4.3843086901723471e-01 3.1175211766678381e+00 5.9034676455169499e-01 0 0 1
708 1 6.8049164643626348e-01 2.6600197279966324e+00 1.4533020480341292e+00 0 0 1
115 1 2.6805717688447994e+00 9.0270881023835112e-02 1.1755566061591394e+00 0 0 0
3478 2 1.0863506298010470e+00 2.3530281269996980e+00 7.0732878932326737e-01 0 0 -1
254 1 1.8331893719617738e+00 2.6799411336916328e+00 1.2207575552082959e+00 0 1 0
2960 1 1.2430318473428108e+00 1.7125883251448553e+00 1.5162828553044854e+00 1 0 0
1160 1 9.1729209782545862e+00 1.3376759167845345e+00 1.4967411282475380e+00 0 0 0
3599 2 2.2437819192672532e+00 3.3164507455772907e+00 7.8588795376553333e-01 0 0 0
622 1 2.7138456798741943e+00 2.6369648814843485e+00 6.7016109262591272e-01 0 0 1
3750 2 3.1811541630061031e+00 1.9037465256639430e+00 8.5931452028758593e-01 0 0 1
34 1 3.9907529868715437e+00 2.1472856195961727e+00 5.6062863501670501e-01 0 0 0
1065 1 3.4715507842251734e+00 2.5097724059717725e+00 1.4249498493578838e+00 0 0 0
968 1 5.1548348487922500e+00 2.2745680422032661e+00 6.4932639890925503e-01 0 0 1
3708 2 4.6225426691277276e+00 1.9462682889219147e+00 1.2224689589132443e+00 0 0 0
1166 1 4.5009605927331355e+00 2.8794748786713331e+00 1.2380156120684140e+00 0 0 1
3768 2 4.8756931169378763e+00 3.1781943973467843e+00 4.6451630324703319e-01 0 1 0
3676 2 9.6015611843958180e+00 1.8842972532040503e+00 2.3103782117395930e+00 0 1 1
3757 2 6.7584070467147699e+00 1.8510077627648922e+00 1.1952602921050559e+00 0 0 1
1764 1 6.2131928631155064e+00 2.3718649663880922e+00 8.2260702641145778e-01 0 1 0
1617 1 7.2037278478937665e+00 2.5478308881865250e+00 9.3369772119079275e-01 0 0 1
1526 1 5.3000502509534222e+00 3.0946445860854350e+00 4.7230959618260453e+00 0 0 0
1499 1 8.2155987439961073e+00 2.1927922359821310e+00 4.1716772920536649e-01 0 0 1
691 1 4.5892095623108462e+00 4.6718729994777526e+00 3.7929228734863867e+00 0 0 0
497 1 9.2543191908502487e-01 3.8551928680788565e+00 1.2198333469752540e+00 0 0 0
3460 2 9.7572977938498298e+00 2.7630350469220422e+00 3.1497686473055229e+00 -1 0 0
513 1 5.3471403706506395e+00 4.6082951985252611e+00 4.6688539687213941e+00 0 0 0
987 1 6.8588322011241765e+00 1.6968078904563009e+00 3.3896312532447864e-01 0 0 0
3516 2 1.3093119898374522e-01 8.6131361466804934e-01 2.4970196246207963e+00 0 0 0
3085 1 1.4859603464423627e+00 3.2971433761952000e+00 4.3488092531400951e-01 1 0 1
3799 2 1.3112026635159071e+00 4.4947980661619820e+00 5.4640176717269728e-01 0 1 0
171 1 2.0175310100813917e+00 4.1041638143602341e+00 1.0586162135583619e+00 0 0 1
1513 1 7.8007174066685607e+00 4.5431782273872763e+00 7.8525060511997469e-01 0 0 0
952 1 9.3226882332563932e+00 2.3761247345017380e+00 1.2399871715547990e+00 0 0 0
656 1 4.0034261180468684e+00 3.3815745525630643e+00 4.8117703527832101e-01 0 0 1
2996 1 3.8559752895934896e+00 4.5826352134852497e+00 1.1856453673414165e+00 1 0 0
717 1 3.1335238541029544e+00 3.8149496489556753e+00 7.2936561333150485e-01 0 0 1
1678 1 9.8635088637496686e+00 3.6204316532234557e+00 2.8716510934107888e+00 0 0 1
668 1 3.7739647405266563e+00 3.5352651540458391e+00 1.5472026705115247e+00 0 0 0
2201 1 9.4597493742575391e+00 4.2419294076646610e+00 1.0095436013946100e+00 0 1 0
1470 1 9.7845017055086210e+00 3.3804885645722638e+00 1.3974084259738389e+00 0 0 0
1019 1 5.5889998093884934e+00 3.2887820978568296e+00 9.4255498077601652e-01 0 0 0
1198 1 4.7286280583914628e+00 3.8874471936492871e+00 1.0801248058356254e+00 0 1 0
3627 2 5.5481161558279446e+00 4.2340462399359549e+00 8.5048030781387451e-01 0 0 1
1870 1 9.5145709372517793e+00 1.5543374105273255e+00 5.8122013712390819e-01 0 1 1
3503 2 9.1925966915130797e+00 2.5135632905125145e+00 3.8730078352488899e+00 -1 0 2
567 1 6.7381497999083608e+00 3.4232957773730863e+00 1.0493227416263169e+00 0 0 0
669 1 6.2971490580448934e+00 4.2612529859308079e+00 1.4111624272447059e+00 0 0 1
3865 2 6.9901490475833326e+00 4.2351147790583106e+00 8.3488404452678511e-01 0 0 0
1051 1 6.2076527083644120e+00 3.9502813985680656e+00 2.9781667222781882e-01 0 0 0
2098 1 7.2458422712613375e+00 3.7441316389163735e+00 1.7221984521806449e-01 0 0 1
3588 2 3.2675792130042813e+00 3.8511575968806806e+00 3.3068851284366581e+00 0 0 0
2084 1 9.8077471691529325e+00 4.3519868539690068e+00 1.1165822110227323e-01 0 0 1
503 1 8.8770928188939955e+00 3.2913693883271153e+00 7.2138759856915058e-01 0 0 0
1506 1 7.8203144952300159e+00 3.4902186088967433e+00 1.0171970073929344e+00 0 0 0
1564 1 8.6700958354127113e+00 4.1944895325089702e+00 3.3063646562202109e-01 0 0 1
1572 1 8.5093130244301740e+00 4.2435702462592335e+00 1.5503797127052616e+00 0 0 1
1042 1 2.5783638799431552e+00 4.5890864611079945e+00 2.2719066639997895e-01 0 0 0
180 1 7.2350466674170599e-01 4.0313116691155519e+00 2.3597611103864474e-01 0 0 1
2064 1 1.7847566077342827e+00 2.3076232400626076e+00 1.3997239075539192e-01 1 0 1
3121 1 9.7293412426336658e+00 3.9887648067331467e+00 4.5568737624336304e+00 0 0 0
140 1 9.6813509374716178e-01 7.2468531148781645e-01 2.1654079386415459e+00 0 0 0
135 1 5.7094124256319789e-01 1.6752193413553931e+00 2.4779959704153445e+00 0 0 1
520 1 2.1218594982680048e+00 1.0364610896330662e+00 1.6684391305839714e+00 0 0 0
3167 1 1.1302981352022834e+00 6.6867215358976806e-01 3.1680061299491138e+00 1 0 1
715 1 2.2341176018664681e+00 6.6910245535188784e-01 2.7778379571269962e+00 0 0 0
1073 1 7.8615467230973053e+00 6.5545797169538164e-02 2.9711129658984290e+00 0 0 0
1000 1 3.1757168306307282e+00 1.4379030031814053e+00 1.5942165246208833e+00 0 0 0
4214 2 2.5758603478687450e+00 1.4517384092225145e+00 2.3232206390069146e+00 1 0 0
817 1 3.0014381225210505e+00 4.0155841507025480e-01 2.1253889023554553e+00 0 1 0
159 1 3.9307258977692334e+00 8.6783875095729712e-01 2.0188755556377673e+00 0 0 0
992 1 3.2660957732448677e+00 1.1776200932177341e+00 2.7917651178608613e+00 0 0 0
966 1 3.8736422976794276e+00 2.6906399337534342e-01 2.8923679342995920e+00 0 0 0
1134 1 4.3041916840042376e+00 1.4921954308274870e+00 2.8990505624671439e+00 0 0 1
1040 1 5.0599154624462193e+00 1.4567481634651473e+00 1.9829136640849869e+00 0 0 0
1358 1 4.8246343710395205e+00 5.4580061152027970e-01 2.4721955760205256e+00 0 1 1
1783 1 5.7274939245077032e+00 2.1847256350767244e-01 2.9574239502258117e+00 0 1 0
3878 2 5.8197792214504753e+00 9.7262913067656454e-01 2.4129756889030807e+00 0 0 1
631 1 5.3220109718096804e+00 1.2154920417661468e+00 3.0859336441230250e+00 0 0 0
3756 2 7.3836183862101601e+00 8.8274747065273085e-01 1.6152621666388725e+00 0 0 1
1357 1 6.6049353132608397e+00 4.9364201387877832e-01 2.0439715482972489e+00 0 1 1
575 1 6.4715254447015713e+00 1.1272456546458045e+00 3.0484798294090005e+00 0 0 0
722 1 6.8487757031409640e+00 1.5209724400446798e+00 1.9747077236018831e+00 0 1 0
1147 1 7.4642574214050192e+00 8.8256217349200317e-01 2.5407509202604746e+00 0 0 1
1351 1 8.1528635767307129e+00 1.1841539421281162e+00 1.8672605505570317e+00 0 1 0
3775 2 8.3597834576085823e+00 8.3377881817546828e-01 2.8650495973083081e+00 0 1 0
3040 1 4.2505871538023721e+00 4.3338415238658037e+00 1.7294942636830146e-01 1 0 0
1696 1 8.4101542872785497e+00 4.3372943121181695e+00 4.3007644845745423e+00 0 0 0
50 1 5.2651058664054267e+00 4.6429434821061601e+00 1.6134157316976407e+00 0 0 0
3495 2 2.8901360200743281e-01 1.8232331470020260e+00 1.6691878263794371e+00 0 0 2
1625 1 3.9100411763419043e+00 4.6329998474725356e+00 4.6752872748395866e+00 0 0 0
4049 2 8.5792099905908348e-01 2.7850473277702905e+00 2.8265855527923911e+00 1 1 1
3631 2 4.6712592725368065e+00 4.8009799909602879e+00 1.0092287104406876e+00 0 0 1
431 1 1.6356976865131563e+00 1.4560927732147717e+00 2.4591698556706465e+00 0 1 1
558 1 2.3734340742139244e+00 2.1004415347198555e+00 1.8078114617248049e+00 0 0 0
2962 1 1.4356924268926281e+00 2.5366325180117815e+00 2.2434527025166049e+00 1 0 0
83 1 2.3828952444857325e+00 2.8827212429011175e+00 2.6040743804410780e+00 0 0 0
166 1 2.4593279321797348e+00 1.8285869745878995e+00 3.1046794261000703e+00 0 0 0
1376 1 3.2335107318178387e+00 2.1357985547448353e+00 2.4901477384115744e+00 0 1 0
3606 2 3.2021190121593683e+00 2.9713846906637915e+00 2.1920572474566189e+00 0 0 0
2941 1 4.1708263724602501e+00 2.9390008365055129e+00 2.3286295251921869e+00 1 0 0
3608 2 4.0665884480516965e+00 2.2944141828809399e+00 2.8242797090670551e+00 0 0 0
3128 1 3.3205277890665070e+00 3.0291143200011170e+00 3.1555096513811911e+00 1 0 0
555 1 4.1015343974081491e+00 1.9709073910354753e+00 1.9535859515710572e+00 0 0 0
505 1 5.4904315887243014e+00 2.5537625605562546e+00 1.6860725961727683e+00 0 0 0
663 1 4.9671917930426552e+00 2.2673019313501888e+00 2.6646838675268851e+00 0 0 0
3686 2 4.7771347680174294e+00 3.3673807878935040e+00 1.8679896676485979e+00 0 1 0
1446 1 6.0011886676130617e+00 2.8712040051290786e+00 2.6295108982560658e+00 0 0 0
568 1 5.8960051261911381e+00 1.9043381454867716e+00 2.3881937180001032e+00 0 0 0
3703 2 6.1065500688181311e+00 3.1925855184662768e+00 1.6104227813204266e+00 0 0 0
3533 2 7.2095900178150378e+00 1.6627047949295646e+00 2.7782877793764911e+00 0 1 0
1462 1 6.6678798527737415e+00 2.5705726477709145e+00 1.7570750228458949e+00 0 0 0
1511 1 6.9060743040780128e+00 2.4832315133273610e+00 2.7487975878172457e+00 0 0 0
1561 1 7.5641465332296827e+00 3.1267383976701386e+00 2.0010486020901719e+00 0 0 0
2197 1 8.1619256298376435e+00 1.6998022847076806e+00 2.8665794549780821e+00 0 1 0
566 1 7.6823645429125040e+00 2.1180164888793724e+00 2.0964297293143401e+00 0 0 0
1437 1 8.2974092053939277e+00 2.6435740163352506e+00 1.3583032355224003e+00 0 0 0
2101 1 8.8198578425039216e+00 2.1204433069726516e+00 2.1175283375094001e+00 0 0 1
3946 2 8.2746338848702727e+00 2.7689544809838562e+00 2.3770567748713778e+00 0 1 0
1721 1 7.8066455644037047e+00 2.6813826432333263e+00 3.1670807526424358e+00 0 1 0
2421 1 8.9022193276817205e+00 3.0839786308851904e+00 2.9994309827810062e+00 0 0 0
3925 2 4.3078694493251968e-01 4.2206752690699512e+00 1.8697019297887447e+00 1 1 -1
162 1 7.6940964322440153e-01 3.4743709331558565e+00 2.2667931165709998e+00 0 0 0
1191 1 5.9735136689010906e+00 4.6611146349492181e+00 3.7474047013022074e+00 0 0 0
3590 2 6.8704412366914722e+00 4.8123777002571986e+00 4.0078043279082101e+00 0 0 -1
492 1 1.0337991857835669e+00 4.2942185708450582e+00 3.1440376416751663e+00 0 0 0
2976 1 1.2025905813189259e+00 4.4681503254586108e+00 2.0370767173212978e+00 1 0 0
615 1 2.7030157374165595e+00 3.2948739497454294e+00 1.5648751786929844e+00 0 0 1
3028 1 1.7567572617554128e+00 3.4463988439388804e+00 1.9154143496066902e+00 1 0 0
3610 2 1.7884838105761054e+00 4.0639017289740949e+00 2.6629922828302122e+00 0 0 0
636 1 2.4299089593301462e+00 4.2671683586323281e+00 2.0375807243960957e+00 0 0 1
2965 1 1.4827573694373930e+00 3.3489647448038546e+00 3.1075033959836182e+00 1 0 0
1098 1 9.2859379538123434e+00 2.5192696772499970e+00 7.6138543732773484e-02 0 0 1
1039 1 4.4145707343232479e+00 4.2736192534749371e+00 2.1577641859882219e+00 0 0 0
4238 2 3.2026797394088522e+00 4.2691584292000231e+00 1.6644501423886808e+00 1 0 0
3619 2 4.0283703566603482e+00 3.5563008229131672e+00 2.9644305830066773e+00 0 0 1
586 1 3.2549632560605137e+00 3.8622603977008949e+00 2.4286089326725562e+00 0 0 0
1022 1 3.8509448948706657e+00 4.4621357812978557e+00 3.0397510591526062e+00 0 0 -1
1682 1 8.1056554115674899e+00 3.6734696099233695e+00 3.5835339258396806e+00 0 0 0
1440 1 4.9944751652155501e+00 3.4418193078682924e+00 2.7409402694120808e+00 0 0 0
664 1 5.5547016436866787e+00 3.7539971085823907e+00 1.9584143015410096e+00 0 0 0
550 1 5.1857821541049187e+00 4.4728211186613898e+00 2.8340170178680988e+00 0 0 0
655 1 6.0674700876710563e+00 4.6445316648694002e+00 2.3677723746333590e+00 0 0 1
994 1 6.0545441194051364e+00 3.8192671492409249e+00 3.0684591481207133e+00 0 0 0
1428 1 7.3748172728584285e+00 4.1510762026091923e+00 1.7324054941741434e+00 0 0 0
508 1 6.8591854455970847e+00 4.6506454835391287e+00 3.1152861085213357e+00 0 0 0
534 1 7.2251844761378115e+00 3.5495890037592277e+00 2.9878930477448735e+00 0 0 0
1271 1 6.5961278349480006e+00 3.5539864124328346e+00 2.1777999136132444e+00 0 1 0
2946 1 9.6415418577380088e+00 5.2671166776135381e-01 9.4991814294917487e-01 0 0 0
3838 2 7.6829232080188508e+00 4.3600388023765673e+00 3.1267520204914088e+00 0 0 0
2731 1 1.6135648022389582e-01 1.2440692650276583e-01 2.9994742365386271e+00 1 1 0
1072 1 8.8057303713845698e+00 3.3053018672979677e+00 1.9711413678582688e+00 0 0 0
1535 1 8.1457855513952619e+00 3.9119533060475096e+00 2.5356137810325738e+00 0 0 0
3964 2 9.3057051431937072e+00 4.0500135526472221e+00 1.8505819764976390e+00 0 1 0
1858 1 9.2318072865686069e+00 1.7992464653361884e+00 4.4128638110723513e+00 0 1 0
242 1 4.7246600653932802e+00 1.5546127105749857e-01 9.6550296513970213e-01 0 0 1
4110 2 1.6735879941650778e-01 2.0950078476048445e-01 3.8332741849264433e+00 1 0 0
1491 1 4.9066158792323460e+00 1.8912600268887879e-02 4.7754642982428610e+00 0 0 -1
689 1 9.4090973823399771e-01 7.5881813061411685e-01 4.1390961220737035e+00 0 0 0
4299 2 1.0634937552229411e+00 1.4955037755485885e+00 3.2290184847256986e+00 1 1 1
386 1 6.3402669479689804e+00 1.8896073105360542e-01 3.8539231365417135e+00 0 1 0
1711 1 9.8652486359229457e+00 3.3652641183848639e+00 3.7268020566579363e-01 0 1 0
194 1 2.0600344430224991e+00 3.7238420838677383e-01 4.4510896545410130e+00 0 0 0
3855 2 1.8037115584650945e+00 3.4922766762651114e-01 3.5778338551888087e+00 0 0 0
3192 1 1.8895027675948131e+00 1.2339499208796161e+00 3.6968800338429721e+00 1 0 0
4042 2 4.2468032764345871e+00 8.5175119441262115e-01 4.5918189309725292e+00 0 1 0
1880 1 9.3202208720423254e+00 4.4317014121464338e+00 2.6112035784739560e+00 0 0 0
1584 1 2.8908543804631277e+00 8.9590514769482654e-01 3.7396602675499855e+00 0 0 0
3464 2 3.7827482115934252e+00 1.0365090842452094e+00 3.5397931333878305e+00 0 0 -1
652 1 3.5620360757369149e+00 1.4034349254942475e+00 4.2969694401816652e+00 0 0 0
599 1 4.0795649718630100e+00 2.4050326951875564e-01 3.9477454984168188e+00 0 0 0
991 1 9.1075828874286877e+00 1.1324190533954437e+00 2.5547907855625747e+00 0 0 0
4264 2 4.5619982540508941e+00 6.4940505342425292e-01 3.2808820668405501e+00 1 0 1
1054 1 5.1653406259270467e+00 5.4092292652619856e-01 3.8955516948710471e+00 0 0 0
481 1 4.5377800450130357e+00 1.3270974242298059e+00 3.8626866311371444e+00 0 0 0
235 1 5.9938415756447441e+00 1.2040652913136938e+00 3.9826246151832083e+00 0 0 0
3764 2 9.3998464270801172e+00 5.4517471149191021e-01 1.8832111245989618e+00 0 1 -1
3856 2 7.0816385126310566e+00 6.0120404453635279e-01 3.3520786611836533e+00 0 0 0
2360 1 6.9926518495869949e+00 1.0034236629078694e+00 4.2022760744218770e+00 0 1 0
628 1 7.4619392175051056e+00 4.5837492992118332e+00 4.6969822390421525e+00 0 0 0
986 1 1.9759268477432848e+00 4.1072285011290397e+00 4.7943224272934257e+00 0 0 0
1950 1 9.0600496549929321e+00 1.1463464716586189e+00 3.5983323308723070e+00 0 0 0
4029 2 8.4710453753930608e+00 1.2561056584960044e+00 4.2707980111058301e+00 0 1 0
580 1 7.9362124253710222e+00 9.6937335319532059e-01 3.6344286597598030e+00 0 0 0
878 1 8.9736982959072460e+00 3.4698968591179596e-01 4.3611490396560022e+00 0 1 0
412 1 2.2619404416997915e-01 1.1509331264715139e+00 3.3439976253732913e+00 0 1 0
1425 1 9.6843284071251503e+00 3.2132313739812441e+00 3.8881947761772655e+00 0 1 0
905 1 4.5115662717130911e-01 2.2458312079464018e+00 3.3792064216017912e+00 0 1 0
1242 1 5.8225740948308689e+00 1.5193364293641587e+00 2.8828383905630889e-01 0 1 0
906 1 9.6279026030250030e+00 2.7273958626795181e+00 2.2325748120846702e+00 0 1 0
2545 1 4.6910841867605124e-01 3.0154806240848901e+00 4.3879720658153234e+00 1 0 0
3490 2 1.0747013508761420e+00 2.7773045889264063e+00 3.7596543815891059e+00 0 0 0
2562 1 1.0310703982322811e+00 2.0213996540472574e+00 4.2003397393561768e+00 1 0 -1
3080 1 1.4956673729453385e+00 2.2321488877391902e+00 3.2547217473155294e+00 1 0 0
3480 2 1.8408103836905449e+00 2.0078805357525202e+00 4.0142278045112318e+00 0 0 0
700 1 1.7114972279446070e+00 2.8181041546801180e+00 4.4496313894359822e+00 0 0 0
288 1 2.2684637209236671e+00 2.8674733420734309e+00 3.6513848246841469e+00 0 1 0
4208 2 2.5573840392809357e+00 2.8942130897204530e+00 4.5703519763477551e+00 1 0 0
543 1 2.6979580068550408e+00 2.0098531123474994e+00 4.2427745825395826e+00 0 0 0
1165 1 3.6179928199179505e+00 1.9777228391200170e+00 3.4927421470689572e+00 0 0 0
802 1 3.4912893972205810e+00 2.7495803814479682e+00 4.2115998039527991e+00 0 1 0
572 1 4.3439584820041031e+00 2.8607010007609119e+00 3.4345869972330063e+00 0 0 0
1167 1 4.3831141366210149e+00 2.2917043805588246e+00 4.3619960075917792e+00 0 0 0
970 1 6.4122489171507553e+00 4.3746709461833158e+00 4.7506812559180114e+00 0 0 0
3719 2 4.4858525282105841e+00 3.1794423973065871e+00 4.2209356866662668e+00 0 0 -1
4119 2 4.6933260026282646e+00 2.0419553237727368e+00 3.5579157399575512e+00 0 0 0
1007 1 5.4222388404534296e+00 2.0487440776784376e+00 4.2031763800987338e+00 0 0 0
2164 1 5.4192731581684574e+00 2.8836814325745403e+00 3.5802845785813404e+00 0 0 1
3884 2 6.0332045931856548e+00 2.8198418512485786e+00 4.2684424111226607e+00 0 0 1
1062 1 6.0683660692278938e+00 2.0357067328834271e+00 3.3787334306965100e+00 0 0 0
1194 1 7.3455568427644184e+00 1.8285826189322665e+00 3.5574862705911943e+00 0 1 0
814 1 6.6181378443623728e+00 2.1784471006599788e+00 4.3158718924375927e+00 0 1 0
1081 1 6.5416697716225602e+00 3.0143762432175261e+00 3.6057347175292214e+00 0 0 1
860 1 7.5068556628878698e+00 2.7102815787800210e+00 4.1645564452628525e+00 0 1 1
4263 2 6.8870576852969769e+00 4.7944951914417784e+00 2.0605822295434644e+00 1 0 0
1906 1 7.9871038499767844e+00 6.6113570848570757e-01 4.6488063603643406e+00 0 1 0
1071 1 7.6397830659694828e+00 1.6835009674384982e+00 4.5371678456901599e+00 0 0 -1
1573 1 8.3572944807729357e+00 2.0675017748553537e+00 3.8585729646566982e+00 0 0 0
537 1 8.6049013767331122e+00 3.0147109808127288e+00 4.2096159884029731e+00 0 0 0
536 1 3.4848519330743183e-01 3.3379501863829764e+00 3.2931125877628706e+00 0 0 0
1117 1 5.1858794851159118e+00 3.9246390718941044e+00 1.2527571320097877e-01 0 0 1
114 1 1.2225568251870573e+00 3.7171241811825628e+00 4.1117958059956825e+00 0 0 0
124 1 5.9985227348005781e+00 3.6711477209232508e+00 4.1354935833295707e+00 0 0 0
177 1 2.4533575486345862e+00 3.8347363911511927e+00 3.0964172201612694e+00 0 0 0
1505 1 4.9434666824409126e+00 3.7759451277575971e+00 3.7785257252096005e+00 0 0 0
232 1 2.8870777329316231e+00 3.6047873898097218e+00 4.2211938341611823e+00 0 0 0
779 1 1.8858432612533296e+00 4.4684378591908969e+00 3.7735024310179703e+00 0 0 0
4148 2 2.0263261941928894e+00 3.6107325608184215e+00 3.9615313181795213e+00 1 0 0
548 1 6.7535839110983389e+00 3.3126315045766477e+00 4.6489616669025180e+00 0 0 0
1621 1 8.4894343220876785e+00 4.7025623577357907e+00 3.1700737299005834e+00 0 0 0
3127 1 3.9308147751940661e+00 3.7138249793274705e+00 3.8749830692900815e+00 1 0 0
2076 1 9.1798346519173375e+00 2.0738723924339975e+00 3.0826723814376726e+00 0 0 1
1622 1 9.1470942734338969e+00 3.9592890612367078e+00 3.5715150312083077e+00 0 0 0
2108 1 7.8118250967444798e+00 3.5636710486436227e+00 4.6458471444630698e+00 0 0 0
559 1 3.1567577597496341e+00 4.5176087095066357e+00 3.8547627558608064e+00 0 0 0
4177 2 5.9646802893824447e+00 1.6651151274865650e+00 4.7398230656900857e+00 0 1 0
3688 2 3.8127424391368008e+00 3.6957191188356817e+00 4.7356576475613918e+00 0 1 0
1651 1 8.9128216625197041e+00 1.5389142626749588e-01 3.2722317189255770e+00 0 0 1
57 1 1.6101337383256851e+00 1.3167056640087569e+00 4.6982184867495844e+00 0 0 0
4041 2 9.6661490935265260e+00 5.4033135185004666e-01 3.4310682740452636e+00 0 1 0
4278 2 1.0102512344317542e+00 4.7050791144677628e+00 3.9155733121711012e+00 1 1 -1
574 1 4.6396795545464808e+00 3.8975230386004318e+00 4.7402283054469763e+00 0 0 0
1488 1 7.0472636796932733e+00 4.8001907533338182e+00 6.5024285268517848e-02 0 0 0
137 1 2.4653037367031576e+00 1.9655437752039426e-01 6.8341757172059717e-02 0 0 1
529 1 2.8547949864644782e+00 4.7648855131674210e+00 2.8884510128801653e+00 0 0 0
208 1 9.3482266726685270e-01 4.5061128235524706e+00 4.7534845690080179e+00 0 0 0
10 1 1.4145874477294782e+00 5.2985879059162055e-01 5.9462110203669663e-02 0 0 1
1913 1 5.1190972277307356e+00 1.1193943190860614e+00 4.7632711539882546e+00 0 1 0
3772 2 3.3138588457504987e+00 1.3791528133223131e-02 3.7210632308036490e-01 0 1 1
1001 1 8.0971027746362054e+00 3.1589239269235616e+00 4.7320852225779756e-03 0 0 0
1029 1 7.5347318529343159e+00 1.0517869021463426e+00 3.6161046325678674e-02 0 0 0
3140 1 1.7051892799815440e+00 4.1031810205532162e+00 9.4367075762434265e+00 1 0 0
868 1 6.6583945028196034e-01 1.0599798552567257e+00 6.0973589521773910e+00 0 1 0
1396 1 9.4399052232048444e+00 3.0230079736400706e-01 7.4922676188214758e+00 0 1 0
869 1 3.2107327644603147e+00 4.8236220832956684e+00 8.1537367573905755e+00 0 1 0
1963 1 9.5561856436812711e+00 2.8224632553562401e+00 4.8737091073887102e+00 0 0 0
2986 1 1.0695066134288322e+00 5.4096589323467748e-01 5.1851192707085998e+00 1 0 0
3545 2 1.9527720509080793e+00 7.7590794430129106e-01 5.2928138011602321e+00 0 1 0
199 1 1.5751500774799907e+00 6.3970421102020247e-01 6.2118527606029774e+00 0 0 0
4220 2 9.6255586755783682e+00 1.9672952862527229e+00 7.4826534193267689e+00 0 0 -1
3722 2 3.8177072964525141e+00 1.6043403822382665e-01 5.8781138513672673e+00 0 1 -1
370 1 3.8429055581688303e+00 1.8843086198787509e-01 8.1641978771822163e+00 0 1 0
706 1 2.7549792482429645e+00 6.0390242343637757e-01 5.8979132060886830e+00 0 0 0
4031 2 3.2191433270114067e-01 2.3034602906421888e+00 4.8834086564163384e+00 1 1 0
3513 2 3.3796307788546875e+00 1.3693411707960064e+00 5.5089127695188944e+00 0 0 0
842 1 3.5707762610124703e+00 6.1327035203466984e-01 5.1477455393819325e+00 0 1 0
913 1 3.9565755292115292e+00 1.0769192885655596e+00 6.1858573279334435e+00 0 1 0
1069 1 4.2011282011724269e+00 1.5100117019050094e+00 5.2198261478737056e+00 0 0 0
1904 1 9.3841876925399603e+00 1.9978333812305122e+00 5.5781854773592858e+00 0 1 0
3611 2 5.4054506556903243e+00 4.7477430642819829e-01 5.3897619278559326e+00 0 0 1
3752 2 4.9747928570979987e+00 1.3222629941045705e+00 5.6451846998581665e+00 0 0 0
526 1 4.5526508354334929e+00 5.9213759242101716e-01 5.5519062019140897e+00 0 0 -1
1080 1 5.2842891211619705e+00 8.8790263317926788e-01 6.3077239582771139e+00 0 0 0
1514 1 7.4442201488643844e+00 3.2810523558019939e+00 8.7338899994963839e+00 0 0 -1
1128 1 5.8553906805696938e+00 1.4424157247119205e+00 5.5819558095094477e+00 0 0 1
724 1 7.0311921602179597e+00 4.8002771034030539e-01 5.3035489151431436e+00 0 1 0
1498 1 6.0962801160065032e+00 4.0825211056902444e-01 5.9229678790383584e+00 0 0 0
1683 1 6.9448634336876571e+00 8.4307597922569866e-01 6.3513989078974573e+00 0 0 0
1199 1 6.7944262742109895e+00 1.4750652880560593e+00 5.0939302189932656e+00 0 1 0
3749 2 9.2480044149682978e+00 3.9482218321737732e+00 8.3015063300353678e+00 0 0 0
4122 2 7.5992704759286900e+00 1.1640267808727749e+00 5.2156742421154867e+00 0 0 0
1349 1 7.9773727179006952e+00 7.8974783831487660e-01 5.8960329423394509e+00 0 1 0
889 1 8.4976415552993423e+00 1.3913480331170531e+00 5.1741782348815573e+00 0 1 0
2044 1 8.7856113850403510e+00 3.2443535548505226e-01 5.3903590010311149e+00 0 0 0
1654 1 8.5440687141743403e+00 1.6026653207912502e+00 6.1929420467634726e+00 0 0 0
1907 1 8.9619015594172424e+00 5.6962037829363432e-01 6.3790580599493376e+00 0 1 0
282 1 3.1880234420504816e-01 2.0314300225956576e+00 5.8626047430559725e+00 0 1 -1
1628 1 9.2184899386583741e+00 4.7365581456915429e+00 7.9920253157920094e+00 0 0 0
134 1 1.0473332583692359e+00 2.9562047247999037e+00 6.1091760358667351e+00 0 0 0
1021 1 9.1236657406172679e+00 3.4098658244241644e+00 9.2867586040791874e+00 0 0 0
1566 1 7.5307630645786565e+00 4.0890256202021922e+00 8.1860839757781925e+00 0 0 0
110 1 1.6046433523121058e+00 1.5573707402166344e+00 5.7147624329014324e+00 0 0 -1
26 1 1.1909360669825599e+00 2.3674061329306162e+00 5.2473115891471398e+00 0 0 0
695 1 2.6473771003904214e+00 1.6848661506306384e+00 5.9307746279736255e+00 0 0 0
602 1 2.2530557501614932e+00 2.1637133075580182e+00 5.1036846535910039e+00 0 0 0
2586 1 2.0129353364176890e+00 2.4673438042894795e+00 6.2472190397257581e+00 1 0 0
4302 2 2.7947934543611201e+00 2.6831516175566383e+00 5.8495760367586440e+00 1 1 0
1180 1 3.7077383112979079e+00 2.0645200959113792e+00 6.0036391278167649e+00 0 0 0
1482 1 4.2212499418472555e+00 2.9889402945868397e+00 5.0562952575511986e+00 0 0 0
617 1 6.7536746662538594e+00 4.7479534579145248e+00 7.9537151594726359e+00 0 0 0
675 1 3.5352704367822048e+00 3.0617354552077058e+00 6.1837467587628847e+00 0 0 0
676 1 3.1909601333501905e+00 3.1766963059349815e+00 5.1586080260089187e+00 0 0 0
1114 1 5.0751844100004275e+00 2.1621476068842953e+00 5.2729714977528985e+00 0 0 0
1187 1 5.5844705562897987e+00 2.1980318909220435e+00 6.1227411869941477e+00 0 0 0
659 1 4.6316441674487834e+00 2.7884179856655731e+00 6.0635117053873744e+00 0 0 0
3713 2 5.4558693345759615e+00 2.9764341843672955e+00 5.6518253553512610e+00 0 0 0
698 1 4.6636775907007717e+00 1.8399683249736349e+00 6.3879184371042452e+00 0 0 0
1177 1 6.0934654084919284e+00 2.5008156969836794e+00 5.1518942245596735e+00 0 0 0
1853 1 6.7351541434773896e+00 1.9525642281527811e+00 6.2005165279121410e+00 0 1 1
3123 1 6.5827926292073711e+00 2.9349665197420900e+00 6.0328417306831188e+00 1 0 0
3577 2 7.4590372308066391e+00 2.6487311811927823e+00 6.0150768091506635e+00 0 0 -1
1676 1 7.2080829334694414e+00 2.5684917108911667e+00 5.1180264162714222e+00 0 0 0
1647 1 7.7261415222499892e+00 1.8612925018324054e+00 5.6712526273077115e+00 0 0 0
1049 1 8.5370773212954489e+00 2.4648698985615169e+00 5.0912034517724862e+00 0 0 0
3811 2 2.7007509357080401e+00 2.9791419218251475e-01 5.0633940275784886e+00 0 1 0
1153 1 8.1950012759049837e+00 2.5898347830336670e+00 6.4895125558380844e+00 0 0 0
592 1 1.7750615659469628e+00 7.7258977200137122e-02 8.7394932869025332e+00 0 0 -1
2590 1 5.2506911590524696e-01 4.1610003254687182e+00 5.8727253883879227e+00 1 0 0
2453 1 1.1022169364231138e+00 3.4739121290943835e+00 5.1278819849361170e+00 1 0 0
581 1 2.5799610848333177e+00 3.4320081147365387e+00 9.5925777532068111e+00 0 0 -1
3565 2 8.9604151673873620e+00 4.3401212234597129e+00 4.9801346096780481e+00 0 0 0
1079 1 2.1078118168747619e+00 3.2111077800121732e+00 5.3626909935474094e+00 0 0 0
223 1 1.7053024011312967e+00 3.9655886860822940e+00 5.9171401883716470e+00 0 0 0
1133 1 2.7320152102886932e+00 3.6455987479883478e+00 5.9790967143657348e+00 0 0 0
153 1 2.9525885324457244e+00 4.1734815437849040e+00 5.0635110843917248e+00 0 0 1
1115 1 9.0953320044957291e+00 4.1927232652280777e+00 5.9391716113501927e+00 0 0 0
601 1 3.8339862897920387e+00 3.9228749596769523e+00 5.6288965537206774e+00 0 0 0
1093 1 4.8866487131242069e+00 3.7280091160607189e+00 5.8185794916096523e+00 0 0 0
1899 1 9.5260982351676056e+00 1.0544576498550833e+00 5.1212345090902529e+00 0 1 0
2088 1 5.9889639384101070e+00 3.6424146889249647e+00 5.3868467798863868e+00 0 0 0
127 1 5.7086407742576206e+00 3.3341482211732374e+00 6.4268602888335549e+00 0 0 0