LAMMPS data file via write_data, version 12 Dec 2018, timestep = 178200

4320 atoms
2 atom types

0.0000000000000000e+00 1.9309999999999999e+01 xlo xhi
0.0000000000000000e+00 1.9309999999999999e+01 ylo yhi
0.0000000000000000e+00 9.6549999999999994e+00 zlo zhi
2.6068499999999979e+00 0.0000000000000000e+00 0.0000000000000000e+00 xy xz yz

Masses

1 1
2 1

Atoms # atomic

1458 1 6.9432939930022339e+00 9.2239077168200373e-02 9.3858018681304611e-01 0 0 0
497 1 7.2813505648314103e-01 4.0909237398605143e+00 1.2433635325002061e+00 0 0 0
1433 1 9.8521524332676140e+00 4.6108939395815769e+00 1.3633486715485406e+00 0 0 0
1218 1 8.1968158125027102e-01 1.1991280264546185e+00 1.0249203815251731e+00 0 1 0
3622 2 1.5838412310905798e+00 1.0463776126944895e+00 6.8322418924578299e-01 0 0 1
1042 1 2.2684675212835756e+00 4.6694612638840489e+00 2.4213243721564065e-01 0 0 0
967 1 9.5207916295976180e-01 2.0390530612064084e+00 4.4800395144036897e-01 0 0 0
3205 1 1.7937152237412270e+00 1.9001002220873915e+00 9.8603819984667662e-01 1 1 0
1613 1 1.0235185036118466e+01 4.5295411660164104e+00 4.4907479514295243e+00 0 0 0
851 1 2.5155861879551029e+00 1.2122638688054221e+00 6.4562396711831371e-01 0 1 0
253 1 3.1138951012492484e+00 4.3322514466163337e-01 1.2988172381937400e+00 0 1 0
1190 1 3.5083193515594560e+00 1.4802700741677115e+00 1.1607363414479934e+00 0 0 1
3918 2 3.2891577002970722e+00 1.4900589228028134e+00 2.8865586607679800e-01 0 1 0
30 1 6.8206945270693895e+00 3.7111201298284988e+00 4.0972825332406488e+00 0 0 0
1127 1 3.5005286334139356e+00 6.5990238246046895e-01 3.0055481521641891e-01 0 0 1
1554 1 4.4135087059380771e+00 1.0493230247716425e+00 8.2946620562662932e-01 0 0 1
4116 2 4.0045435326860304e+00 7.8351477700497674e-01 1.5361043880963290e+00 1 0 -1
95 1 4.8627086052661683e+00 4.7768024737344961e-01 1.5952908164834778e+00 0 0 0
2174 1 5.0906735017716462e+00 3.0817929484979600e-01 6.0351314913438292e-01 0 1 0
3288 1 4.3935993055377187e-01 1.8763343808421939e-01 3.8574985548897276e+00 1 1 0
870 1 5.2812445527657568e+00 1.3870349689826569e+00 1.3585834051229368e+00 0 1 1
1798 1 6.0051287788046750e+00 6.7990691904183320e-01 1.0160981588018463e+00 0 1 0
4263 2 6.8572491576392611e+00 4.0632695517511550e+00 2.4811886617782486e+00 1 0 0
1711 1 9.4123461093348109e+00 2.7576514359891386e+00 3.8859856312671259e-01 0 1 0
1615 1 6.9047553897396847e+00 1.1930764839619494e+00 1.0366069721852242e+00 0 0 1
1678 1 9.3499240065978260e+00 3.2006707124420375e+00 2.9607087753046937e+00 0 0 1
987 1 6.3024149210552638e+00 1.6426899623211948e+00 2.4587257921696409e-01 0 0 0
767 1 7.9851252064389895e+00 2.1468010601373522e-01 1.1749129886547904e+00 0 1 0
1359 1 7.7058981398131090e+00 1.1645269216055971e+00 2.9736629358110822e-01 0 1 1
3468 2 8.0216526535383395e+00 1.0706814001335934e+00 1.1010230815232522e+00 -1 0 1
3799 2 1.2775084045516596e+00 4.7056379049433419e+00 5.9047756412344055e-01 0 1 0
1470 1 9.4359832563357635e+00 2.7780566204144224e+00 1.4607149956546659e+00 0 0 0
2976 1 1.0174347331295084e+00 4.7770309525603096e+00 2.0453997560153656e+00 1 0 0
4129 2 9.8265672780107316e+00 4.1699855519029301e+00 2.7608249376401859e+00 1 0 1
115 1 2.0639243041755662e+00 3.5649663550458521e-01 1.2177898837379981e+00 0 0 0
3478 2 8.2663303321883497e-01 2.9580431443132564e+00 5.6681240951885281e-01 0 0 -1
254 1 1.4445983486619387e+00 2.9693355608394674e+00 1.1718072060952809e+00 0 1 0
2960 1 7.9400464214980704e-01 2.1138156965687589e+00 1.4773254155366344e+00 1 0 0
1160 1 8.9042206965681956e+00 8.7308880532580169e-01 1.4606538544146186e+00 0 0 0
3599 2 1.9259574905864600e+00 3.5287436202855305e+00 8.0727131954125098e-01 0 0 0
622 1 2.5089398171677120e+00 2.8433405973218679e+00 6.7349411992982178e-01 0 0 1
3750 2 2.7627489686300302e+00 1.9992813568776928e+00 9.4572569074888102e-01 0 0 1
34 1 3.5106963233053512e+00 2.3546726489225041e+00 6.0232742506195414e-01 0 0 0
1065 1 2.9868473053872115e+00 2.5538880314860730e+00 1.5830150834606462e+00 0 0 0
968 1 4.5889760625078866e+00 2.2148269106765675e+00 6.1174397955353110e-01 0 0 1
3708 2 4.3092086984543450e+00 1.7147844650494337e+00 1.2698494424259514e+00 0 0 0
1166 1 4.2765152141113880e+00 3.0509323151255248e+00 1.3842531935808415e+00 0 0 1
3768 2 4.6061575538857920e+00 3.1061738231855518e+00 5.3008923309915978e-01 0 1 0
3676 2 9.0800544402767436e+00 1.3871849519198034e+00 2.1989677771941909e+00 0 1 1
3757 2 6.1436877886291779e+00 1.5823646021476139e+00 1.1131632294427283e+00 0 0 1
1764 1 5.6255481211371698e+00 2.2524813652345146e+00 7.5984271921854396e-01 0 1 0
1617 1 6.7298971611843070e+00 2.2080107363834678e+00 9.3045227798244834e-01 0 0 1
10 1 8.7458689592480776e-01 8.6708248696938939e-01 2.6556589693221763e-02 0 0 1
1499 1 7.8288379169464513e+00 2.0582688869145174e+00 9.6256537707911238e-01 0 0 1
1544 1 9.7317570293520372e+00 1.7947801911888008e+00 5.4871585498593911e-01 0 0 0
1783 1 5.2218950288882562e+00 3.2164101764006220e-01 3.0948396440904005e+00 0 1 0
513 1 5.0016719347191794e+00 4.3211110428370620e+00 4.8137221695612009e+00 0 0 0
1145 1 8.8763073900246674e+00 4.4332187526271536e+00 4.2106668685593034e+00 0 0 0
1625 1 3.6823482748317158e+00 4.6744509198565272e+00 4.5933346995120736e+00 0 0 0
2108 1 7.4169076765597843e+00 3.0234042485854453e+00 4.7323766330828647e+00 0 0 0
3085 1 1.1756427818228752e+00 3.7139134485846217e+00 2.7153884632200204e-01 1 0 1
570 1 1.0664812211896915e+00 2.1237796568653633e-01 2.9062830733771312e+00 0 0 0
171 1 1.8411671934176832e+00 4.3077805727524758e+00 1.1201097051369353e+00 0 0 1
1513 1 7.5271336053414659e+00 4.3045933799580967e+00 8.3393729968505037e-01 0 0 0
952 1 8.8298718633941302e+00 1.9135903578341327e+00 1.2207504540444167e+00 0 0 0
656 1 3.7789310321930802e+00 3.4823501152135297e+00 5.5229008502016808e-01 0 0 1
2996 1 3.5788036404380210e+00 4.6005710779677500e+00 1.0775592433598573e+00 1 0 0
717 1 2.7551555343883516e+00 3.8908150860388693e+00 7.9525506949015168e-01 0 0 1
4049 2 4.8761374828463599e-01 3.1057020622046672e+00 2.8318504277301089e+00 1 1 1
668 1 3.4630942433396488e+00 3.7217895392865303e+00 1.5892612797971497e+00 0 0 0
2201 1 9.1572528488660616e+00 3.8096944990083150e+00 1.2192168101425775e+00 0 1 0
1472 1 9.8480440982844915e+00 3.6349595989496528e+00 2.0618725902517916e+00 0 0 0
1019 1 5.2576367135042927e+00 3.3289653833046389e+00 1.0075860646408856e+00 0 0 0
1198 1 4.4958994284277782e+00 4.1328430870779940e+00 1.1609318585221944e+00 0 1 0
3627 2 5.2513201250814143e+00 4.2696036530432320e+00 7.7879049571816461e-01 0 0 1
1870 1 8.8821601904510779e+00 1.1004119866512847e+00 5.0486746301271623e-01 0 1 1
3503 2 8.6985077101921906e+00 1.7603154856250058e+00 3.7865740274905972e+00 -1 0 2
567 1 6.2369057043458893e+00 3.1368196463365647e+00 1.1696689788680090e+00 0 0 0
669 1 5.8952939075870470e+00 4.1189676614514301e+00 1.3331424581301796e+00 0 0 1
3865 2 6.5235810961455627e+00 4.2833580288892943e+00 7.5070494665561160e-01 0 0 0
1051 1 5.8379199895372897e+00 3.8505855967133749e+00 3.0815390873679871e-01 0 0 0
1519 1 9.6502381858570914e+00 6.6013315599629541e-01 2.1418300467857709e+00 0 0 0
3588 2 2.6823294027046094e+00 3.6604956185277349e+00 3.6395545300952956e+00 0 0 0
3771 2 9.7379795573065984e+00 3.2272758798378272e+00 3.7575059011192433e+00 0 1 -1
503 1 8.5268692379661708e+00 2.9373915120547469e+00 9.1443747805225772e-01 0 0 0
1506 1 7.4099684973796345e+00 3.0997676077668759e+00 1.0555427024297930e+00 0 0 0
1564 1 8.3689319178798982e+00 3.8078483213297756e+00 3.6383922790060291e-01 0 0 1
1572 1 8.1009025528238858e+00 3.7495940272892985e+00 1.4844716885214682e+00 0 0 1
3590 2 6.5230694051965052e+00 4.5253936415574154e+00 4.1247893058604177e+00 0 0 -1
50 1 5.0890223721047834e+00 4.6752780567828998e+00 1.7359434857441285e+00 0 0 0
779 1 1.6201003856744338e+00 4.7586968265136811e+00 3.8759306754075662e+00 0 0 0
94 1 2.2941287575815457e+00 2.3491834880870877e-01 3.1668341181738455e+00 0 0 0
140 1 4.9938550707759799e-01 1.1634820316274459e+00 2.0930439708953412e+00 0 0 0
2084 1 9.4606034271053119e+00 3.7824602040365072e+00 2.0986533202699487e-01 0 0 1
520 1 1.6282025545016046e+00 1.2641001270143286e+00 1.7535029414949228e+00 0 0 0
3167 1 5.5515755412236645e-01 1.1232588195356812e+00 3.0739184623561080e+00 1 0 1
715 1 1.6905493067124322e+00 1.0331810949384448e+00 2.8193442200895311e+00 0 0 0
137 1 1.9210710747440305e+00 4.6136714997052591e-01 1.3476635113253788e-01 0 0 1
1000 1 2.6214179519348626e+00 1.4843353605700487e+00 1.6022826396487020e+00 0 0 0
4214 2 2.2921287816697742e+00 1.6445242498735708e+00 2.3898200144098589e+00 1 0 0
817 1 2.3743878400569303e+00 6.6112766379106092e-01 2.1838683573792923e+00 0 1 0
159 1 3.4007984758042964e+00 1.0379853582851608e+00 2.1625743247252438e+00 0 0 0
992 1 2.7245843025918357e+00 1.2427109221472599e+00 3.1315879395346489e+00 0 0 0
966 1 3.2704473976336175e+00 3.4645404507911332e-01 2.9059995951323048e+00 0 0 0
1134 1 3.7828664386691875e+00 1.4847624931847254e+00 3.0301448479451500e+00 0 0 1
1040 1 4.5093405676175236e+00 1.3731424372449177e+00 2.0557030109198324e+00 0 0 0
1358 1 4.3338282750687274e+00 4.8241890484118016e-01 2.5912842240947258e+00 0 1 1
1621 1 8.1338028585643052e+00 4.1722220414432876e+00 3.3473560504939610e+00 0 0 0
3878 2 5.1887874578872628e+00 8.9446782792609192e-01 2.4620428033168720e+00 0 0 1
631 1 4.7215254189213347e+00 1.2436000885478786e+00 3.1631468470332975e+00 0 0 0
3756 2 6.6501870728553332e+00 5.6724211331092600e-01 1.6335187435549809e+00 0 0 1
1357 1 5.8550130750188689e+00 3.3418273014619609e-01 2.1878795388162948e+00 0 1 1
575 1 5.9578415420840773e+00 1.0734481788699353e+00 2.9798981588555340e+00 0 0 0
722 1 6.2437877071501662e+00 1.2424989629669314e+00 1.9366984183312228e+00 0 1 0
1147 1 6.9156000458495619e+00 6.0263240047731215e-01 2.6629659860623458e+00 0 0 1
1351 1 7.4392202171230730e+00 8.5768589846240162e-01 1.8895660512499977e+00 0 1 0
3775 2 7.7528701944218188e+00 4.5343472172429755e-01 2.8869422866951404e+00 0 1 0
1001 1 7.7362308014169336e+00 2.8799165549941828e+00 1.4858208924266697e-01 0 0 0
1457 1 9.6211640950350912e+00 4.0091623607190296e+00 3.6056989608276466e+00 0 0 0
878 1 8.3319580227162735e+00 4.9384585330381647e-02 4.3133170210389293e+00 0 1 0
3482 2 8.8085904851158094e+00 4.4933870753146463e+00 5.2037828022168948e-02 0 0 1
691 1 4.3386277110251728e+00 4.7014829836337286e+00 3.6103146422744197e+00 0 0 0
2141 1 8.5934168395857284e+00 4.7206703875683678e+00 9.3330559342843988e-01 0 0 1
559 1 2.7100065960916488e+00 4.5834846073969668e+00 3.9368315516524928e+00 0 0 0
431 1 1.2204790228740805e+00 1.8921701642669535e+00 2.4622907839285753e+00 0 1 1
558 1 2.0272002597699670e+00 2.4182297586710719e+00 1.9345199482574909e+00 0 0 0
2962 1 1.0287838895501802e+00 2.8719029204900091e+00 2.2160781320562384e+00 1 0 0
83 1 1.9825652408924999e+00 3.2342298395874649e+00 2.6269002975645641e+00 0 0 0
166 1 2.0967081405222103e+00 2.2946616228346124e+00 3.0649815948350869e+00 0 0 0
1376 1 2.9820608584967041e+00 2.0620594606755347e+00 2.5376311594699188e+00 0 1 0
3606 2 2.6916236702839291e+00 2.9952237240097763e+00 2.2946427342174971e+00 0 0 0
2941 1 3.6838780615095716e+00 3.0396172597665689e+00 2.4212757821765267e+00 1 0 0
3608 2 3.6144212452446580e+00 2.3663185276438803e+00 2.9970092044052836e+00 0 0 0
3128 1 2.9045993662765177e+00 2.9408761275941857e+00 3.1627718146238788e+00 1 0 0
555 1 3.8943545882187305e+00 2.1552355479871159e+00 1.8842864851712475e+00 0 0 0
505 1 4.9244907775017106e+00 2.3251730162456892e+00 1.6327058300546489e+00 0 0 0
663 1 4.5601742951405893e+00 2.2663420017712235e+00 2.8844401256353289e+00 0 0 0
3686 2 4.5324225708282029e+00 2.9157818236833468e+00 2.2213202174009332e+00 0 1 0
1446 1 5.3370516494530147e+00 2.8645799987660041e+00 2.6545328181638750e+00 0 0 0
568 1 5.3915127053444198e+00 1.7807659214292237e+00 2.4810918234891512e+00 0 0 0
3703 2 5.5629112815508659e+00 3.0905855257911208e+00 1.8360583733634159e+00 0 0 0
3533 2 6.7698419677317458e+00 1.4901890337733203e+00 2.5981997045673637e+00 0 1 0
1462 1 6.0256880659417185e+00 2.3164428290940853e+00 1.7686177249797312e+00 0 0 0
1511 1 6.3897192611128961e+00 2.3339803334091904e+00 2.7746630309303639e+00 0 0 0
1561 1 6.8964309055195070e+00 2.9252827930259615e+00 1.9989504834694414e+00 0 0 0
2197 1 7.6619837323488547e+00 1.3437867582940726e+00 2.7268135838583238e+00 0 1 0
566 1 7.0685442988662395e+00 1.9194050096996482e+00 1.8741775181230074e+00 0 0 0
1437 1 7.9342773127007522e+00 2.5744875470075894e+00 1.8824125477168001e+00 0 0 0
2101 1 8.1967258027722973e+00 1.5365221132528883e+00 1.9358325333262039e+00 0 0 1
3946 2 8.0617678641272263e+00 2.1115834121628696e+00 2.5930437857215871e+00 0 1 0
1721 1 7.3987101734431135e+00 2.4601745613397448e+00 2.9119983632945581e+00 0 1 0
2421 1 8.4461821338013756e+00 2.5770328191422638e+00 3.1569264331734779e+00 0 0 0
1906 1 7.3597620482052051e+00 2.0966225274864780e-01 4.7120159047359804e+00 0 1 0
548 1 6.3156528309075579e+00 2.9124269138599210e+00 4.7370740254343442e+00 0 0 0
1191 1 5.5372872870361771e+00 4.4968083889263282e+00 3.8000461793090077e+00 0 0 0
1696 1 7.9665635233759566e+00 3.8912216990536703e+00 4.4110959206625120e+00 0 0 0
1965 1 9.7664109834245334e+00 1.6016702011733290e+00 1.5895250916945642e+00 0 0 0
2037 1 7.3736597894734537e+00 4.6590622496460679e+00 2.8332745899194594e+00 0 0 0
615 1 2.3154600979321405e+00 3.4773486436472139e+00 1.5624954632619166e+00 0 0 1
3028 1 1.4003724438412721e+00 3.8262390465398881e+00 1.9716183395014726e+00 1 0 0
3610 2 1.4932437176358853e+00 4.4097821426392700e+00 2.6619502881876507e+00 0 0 0
636 1 2.2299135253919706e+00 4.4768742078688106e+00 2.1706661063100907e+00 0 0 1
2965 1 1.1160931003672760e+00 3.6908241439730345e+00 3.0877308867714013e+00 1 0 0
1029 1 6.7731010791557029e+00 7.1244601151088893e-01 1.1663103222641611e-02 0 0 0
1039 1 4.1436534790283002e+00 4.3188218892713826e+00 2.2092133529373652e+00 0 0 0
4238 2 2.8132531042477700e+00 4.3043226067074549e+00 1.5667024287800977e+00 1 0 0
3619 2 3.6780204867677635e+00 3.5837480243967987e+00 3.1068457842623340e+00 0 0 1
586 1 2.9589839595602143e+00 3.8123904957104178e+00 2.5388896189030263e+00 0 0 0
1022 1 3.5350066968009588e+00 4.5199481110775919e+00 2.9903835587985341e+00 0 0 -1
1682 1 7.7243296622354416e+00 3.2631070753490490e+00 3.5715056089716746e+00 0 0 0
1440 1 4.6046651850770690e+00 3.4908893983852107e+00 2.9822610941334307e+00 0 0 0
664 1 4.9915599201326275e+00 3.6544951527724008e+00 2.1164469111865829e+00 0 0 0
550 1 5.1005677376694232e+00 4.4808582724176809e+00 2.8245705863760020e+00 0 0 0
655 1 6.0117441691525730e+00 4.5669951143516592e+00 2.3011028972496073e+00 0 0 1
994 1 5.6431734981856962e+00 3.6498663153143753e+00 3.1778996048481618e+00 0 0 0
1428 1 6.9952325420821388e+00 3.8819519315842648e+00 1.6407334259813195e+00 0 0 0
955 1 7.3207408454379701e+00 4.6384233325579647e+00 3.9285772455777197e+00 0 0 0
534 1 6.7313884256451120e+00 3.3636443717473972e+00 3.0897196127136741e+00 0 0 0
1271 1 6.1481063461387908e+00 3.5668604971812385e+00 2.2460790909675619e+00 0 1 0
1071 1 7.2824092195228536e+00 1.4823780389113004e+00 4.5154205737178756e+00 0 0 -1
3838 2 7.3204609700541283e+00 3.9891911957351747e+00 3.4193719096343131e+00 0 0 0
479 1 2.3198560854663305e-01 7.1218173624485320e-02 2.2876693106792998e+00 0 0 0
1072 1 8.7430076071594520e+00 3.2530716926394034e+00 2.1473168625850820e+00 0 0 0
1535 1 7.6580282359367633e+00 3.6143376038088566e+00 2.6226272198976619e+00 0 0 0
3964 2 8.4703148095995822e+00 3.5114453284487603e+00 2.9384776492454296e+00 0 1 0
1858 1 8.5588283408215933e+00 1.5165034716514119e+00 4.5706554939143977e+00 0 1 0
1103 1 9.0744892277144125e+00 7.3136468869932669e-01 4.1826609178861478e+00 0 0 0
2076 1 8.8171433348359560e+00 1.5774046205674739e+00 2.9773923122626447e+00 0 0 1
3040 1 4.0357389491562348e+00 4.4765806285840632e+00 1.2942950823273539e-01 1 0 0
689 1 3.9798548483401919e-01 1.2753487036888116e+00 4.1286917534146337e+00 0 0 0
4299 2 4.5528788078354565e-01 1.9293649188893420e+00 3.3136117725293519e+00 1 1 1
599 1 3.5424141676152607e+00 2.3444300385926811e-01 4.0116519820948700e+00 0 0 0
3121 1 9.4546675572710512e+00 3.5321180821020302e+00 4.5265729683302114e+00 0 0 0
194 1 1.3536825903848886e+00 6.6526044164062414e-01 4.5939091182281953e+00 0 0 0
3855 2 1.2870373274819005e+00 7.7024307410309256e-01 3.6065347840717155e+00 0 0 0
3192 1 1.2948989664466266e+00 1.6395126802151456e+00 3.5991968879977598e+00 1 0 0
1538 1 9.4236482601444234e+00 7.1212130648376326e-01 3.1600197548857025e+00 0 0 0
1880 1 8.9730691163618044e+00 4.1249340708989513e+00 2.7136886887127707e+00 0 0 0
1584 1 2.1208170778004471e+00 1.0456993206701488e+00 3.8712850245200872e+00 0 0 0
3464 2 2.8915472519395737e+00 5.9836470897623240e-01 3.6787634643447560e+00 0 0 -1
652 1 3.0624796590094858e+00 1.3379020264153005e+00 4.3577127793024557e+00 0 0 0
1622 1 8.7737313400513379e+00 3.4629694300958396e+00 3.8002151095891978e+00 0 0 0
991 1 8.4874650745624631e+00 7.1665471297863526e-01 2.4460742905406279e+00 0 0 0
4264 2 3.9548311364615722e+00 6.7921413293881150e-01 3.3405973271682319e+00 1 0 1
1054 1 4.6065962290520011e+00 4.7373971635843115e-01 3.9487589500735947e+00 0 0 0
481 1 4.0223288875785101e+00 1.2794223367482114e+00 3.9855597272800263e+00 0 0 0
235 1 5.5045266730669287e+00 9.7659062287409448e-01 3.9690561563678606e+00 0 0 0
492 1 8.5889865835749146e-01 4.7381059201114537e+00 3.1189884261260792e+00 0 0 0
3856 2 6.4578192931188445e+00 6.1693831813052069e-01 3.5173994518688834e+00 0 0 0
2360 1 6.4671594378812509e+00 7.4556466767695928e-01 4.3587046198694930e+00 0 1 0
2064 1 1.6705933900574901e+00 2.6663414971432013e+00 1.2860699083112992e-01 1 0 1
3587 2 8.1116220224879445e+00 4.3016291170552376e+00 2.2240633859633476e+00 0 0 0
1950 1 8.3222980479064290e+00 7.5236049719842268e-01 3.4764383685659084e+00 0 0 0
4029 2 8.0437716086623947e+00 9.9301808901050892e-01 4.2519406438722394e+00 0 1 0
580 1 7.3322361968908032e+00 6.2459182282937498e-01 3.6813039451337688e+00 0 0 0
887 1 2.5379161677628406e+00 1.3569068445098389e-01 4.3241217173711091e+00 0 1 0
3772 2 2.7339304491934322e+00 1.5316638249874823e-01 4.9389455229714158e-01 0 1 1
1425 1 9.2149086635480675e+00 2.5669255775473157e+00 3.9265450075543509e+00 0 1 0
17 1 1.1581375824870959e+00 3.5083318499517574e-01 1.8942785159803279e+00 0 0 0
1242 1 5.2791350409137401e+00 1.3741291974954208e+00 2.8800683547263012e-01 0 1 0
906 1 8.9655975924954650e+00 2.2020266863873470e+00 2.1977157664770237e+00 0 1 0
3847 2 8.8952203651084005e+00 4.8068386392778875e+00 3.4422754051291915e+00 0 0 0
3490 2 5.6953114747169042e-01 3.1258033100172056e+00 3.7108869442940287e+00 0 0 0
2562 1 5.5247235368740588e-01 2.3469080818904691e+00 4.1433749446198904e+00 1 0 -1
3080 1 1.0513201004624884e+00 2.5763368730019804e+00 3.2443005928418724e+00 1 0 0
3480 2 1.4992078146148589e+00 2.4394920034046259e+00 4.0710077405703116e+00 0 0 0
700 1 1.2646350706380300e+00 3.2147468098180672e+00 4.3787713740547138e+00 0 0 0
288 1 1.9577269676456019e+00 3.1313324855058777e+00 3.7049869642967854e+00 0 1 0
4208 2 2.2232172670116137e+00 2.9373248127194356e+00 4.5380733021953459e+00 1 0 0
543 1 2.2359571018247486e+00 2.0939786515584795e+00 4.1362337510621767e+00 0 0 0
1165 1 3.2071065098586917e+00 2.0716028429235753e+00 3.6694151284175165e+00 0 0 0
802 1 3.0320292282029246e+00 2.9993931191472365e+00 4.2175116244800872e+00 0 1 0
572 1 3.8809146487977175e+00 2.8979206546175917e+00 3.6196677429966000e+00 0 0 0
1167 1 3.8278734201365676e+00 2.1470126047382347e+00 4.4581190230565531e+00 0 0 0
57 1 1.2339301891104129e+00 1.6842942798082474e+00 4.6484605551859666e+00 0 0 0
3719 2 3.8965598119492149e+00 3.0586674461535148e+00 4.4345660900218178e+00 0 0 -1
4119 2 4.2654249585076034e+00 2.0702727576312929e+00 3.6704937177794648e+00 0 0 0
1007 1 4.8558371305172781e+00 1.9966744656427073e+00 4.3035745331189830e+00 0 0 0
2164 1 4.9093284803579653e+00 2.8044582977307604e+00 3.7158095966935538e+00 0 0 1
3884 2 5.6296767730068034e+00 2.3582961070867379e+00 4.2389942778486995e+00 0 0 1
1062 1 5.5645273945413640e+00 1.9649233475693995e+00 3.4829374943221021e+00 0 0 0
1194 1 6.7787129588040029e+00 1.5489802266440067e+00 3.4323939404562185e+00 0 1 0
814 1 6.2466752635441738e+00 1.7786332193685517e+00 4.3768144676307656e+00 0 1 0
1081 1 6.0637898956330130e+00 2.8639081830517621e+00 3.7072681064582995e+00 0 0 1
860 1 7.0166680131724730e+00 2.4414814554826507e+00 3.8902021400705058e+00 0 1 1
3460 2 9.3291772404396358e+00 2.2295324588976637e+00 3.0493697456240003e+00 -1 0 0
2250 1 9.6011484510655922e+00 1.7030567416285614e+00 3.6951001293740235e+00 0 1 0
3793 2 7.5560766657038121e+00 2.2931697802390910e-01 3.4438257799868172e-01 0 1 0
1573 1 7.8687614366254115e+00 1.7467441385717684e+00 3.6474063826009959e+00 0 0 0
537 1 8.2353318926670820e+00 2.5523817387332937e+00 4.2494763880102973e+00 0 0 0
508 1 6.4954051537888500e+00 4.3590942629873020e+00 3.2632213097175513e+00 0 0 0
3688 2 2.9592509905247084e+00 3.8559941125300270e+00 4.5160415849428217e+00 0 1 0
114 1 7.6540073621659777e-01 4.0539941156411956e+00 4.0439899812172255e+00 0 0 0
124 1 5.6228932496212698e+00 3.5268599942038299e+00 4.2848219682807009e+00 0 0 0
177 1 2.1211072197727932e+00 4.1609517857370042e+00 3.1454364257745708e+00 0 0 0
1505 1 4.5685528976006093e+00 3.6970012972558335e+00 4.0174507180164536e+00 0 0 0
232 1 2.1028030549836787e+00 3.7891739613287880e+00 4.4614540414299819e+00 0 0 0
1502 1 8.9688279982479351e+00 4.6395676426504968e+00 1.8718802960205818e+00 0 0 0
4148 2 1.6056374552514527e+00 3.8919143641677638e+00 3.7847977367230530e+00 1 0 0
4041 2 8.9626820951929211e+00 1.0317284671493800e-01 3.5226271635503128e+00 0 1 0
3764 2 8.8146657295009234e+00 8.8429666969871409e-02 1.8150908649186870e+00 0 1 -1
3127 1 3.5437342575880040e+00 3.8893685754794562e+00 3.8934629669318790e+00 1 0 0
3137 1 1.1232405429940293e+00 2.1195345600910087e-01 8.0171703066423317e-01 1 0 1
2098 1 6.8316283239377595e+00 3.5951627436759686e+00 3.7680481408261668e-01 0 0 1
1050 1 6.3300934495557293e+00 2.7178997135572840e+00 1.3336290114959753e-01 0 0 0
1117 1 4.8584838807764594e+00 3.8603078488440161e+00 1.6471323688813391e-01 0 0 1
2689 1 9.8232831148139876e+00 1.5656778586262159e+00 2.6808846006361815e+00 0 0 0
242 1 4.0312732072806563e+00 1.9307858479847603e-02 1.0428799249094680e+00 0 0 1
1098 1 8.6435256850770106e+00 2.0048826176441628e+00 1.4485129357125714e-01 0 0 1
4177 2 5.4044107306537210e+00 1.3930566858868083e+00 4.7349126319066164e+00 0 1 0
4078 2 9.6758157111240930e+00 4.9146827855908137e-01 4.7367539406650572e+00 0 1 0
932 1 1.5533308092520942e-01 3.5801121480247228e-01 1.3014321068142600e+00 0 1 0
1531 1 8.4010491115076711e+00 3.2002541973729198e-01 8.0062394706763587e-02 0 0 1
4042 2 3.7336495780254570e+00 7.8709209056066809e-01 4.6374355258756408e+00 0 1 0
425 1 1.0796520967032511e-01 7.4389557838380610e-02 1.7984012292698751e-01 0 1 0
975 1 9.6297284411994486e+00 1.4306731984068914e+00 4.8104753899245614e+00 0 0 0
1979 1 9.9302788332530305e+00 2.5975106225883002e+00 2.3818155212627103e+00 0 0 0
1526 1 4.7929254233671834e+00 2.9984062996837215e+00 4.7714076325852091e+00 0 0 0
1178 1 6.6101357209295619e+00 4.7260309494857520e+00 5.6910771306594379e+00 0 0 0
1107 1 4.6278366757768055e+00 7.4737994853562983e-01 9.4497468331019032e+00 0 0 0
617 1 6.5382290022372480e+00 4.4793708879964864e+00 8.0252534382977299e+00 0 0 0
1171 1 9.5521698432086168e+00 3.1717263674724792e+00 5.5012935543153123e+00 0 0 0
1069 1 3.6402312644116002e+00 1.5302582683469215e+00 5.2858460625687256e+00 0 0 0
2986 1 5.8842369099718117e-01 9.9067187841626492e-01 5.2119590230334660e+00 1 0 0
3545 2 1.5440083662624970e+00 1.1868511839998439e+00 5.7721753068762691e+00 0 1 0
199 1 7.9466100686007435e-01 9.5795102358010076e-01 6.4357546267266708e+00 0 0 0
4220 2 9.1022486213337714e+00 1.4794949236382267e+00 7.4392417505782120e+00 0 0 -1
733 1 5.2067092015210044e+00 2.8574417972158419e+00 9.5935147907580145e+00 0 1 -1
1628 1 9.0586457843798431e+00 4.3861618945304830e+00 8.0758431655314027e+00 0 0 0
706 1 2.3102491887930188e+00 8.1449886265269111e-01 5.9799891502710878e+00 0 0 0
3565 2 8.7917006645009295e+00 3.9897755768781713e+00 4.9861342665521411e+00 0 0 0
3513 2 2.8400053105986176e+00 1.3963588249059919e+00 5.7179800745925098e+00 0 0 0
842 1 2.9379028412900889e+00 7.0458290681252622e-01 5.1587356976839116e+00 0 1 0
913 1 3.4174454372669505e+00 1.1197912354696948e+00 6.2747971439645882e+00 0 1 0
517 1 5.6317573090498190e+00 4.6098880499468917e+00 9.1869063817949428e+00 0 0 0
1904 1 8.8172733685381530e+00 1.5969754048889460e+00 5.6055587274875327e+00 0 1 0
3611 2 4.7843359892263377e+00 3.9771306880971452e-01 5.5598305681046210e+00 0 0 1
3752 2 4.3702065819287803e+00 1.3101237144505036e+00 5.6714460643615148e+00 0 0 0
526 1 3.8763522009566906e+00 5.7968108156489473e-01 5.5667793397703864e+00 0 0 -1
1080 1 4.5919586757048299e+00 6.9540724262711673e-01 6.2700596196718665e+00 0 0 0
1514 1 7.0391566410070725e+00 3.0171304996719193e+00 9.0975609493385949e+00 0 0 -1
1128 1 5.2139900034604185e+00 1.2810636906286514e+00 5.6695721017975966e+00 0 0 1
1557 1 1.0046998885200287e+01 4.0777603852886388e+00 8.1020489212176834e+00 0 0 0
2053 1 9.5760560837338211e+00 2.2269074014459234e+00 6.2807335931444417e+00 0 0 0
1683 1 6.3723321905430215e+00 7.2744971225589250e-01 6.2528842474947570e+00 0 0 0
1199 1 6.2633647315073446e+00 1.1817889098741488e+00 5.3208147209792411e+00 0 1 0
3749 2 8.7980483246054781e+00 3.5351107472753434e+00 8.2918717460291624e+00 0 0 0
4122 2 7.0587141648134919e+00 9.1084417967875786e-01 5.1320509898596489e+00 0 0 0
1349 1 7.3787760879768465e+00 4.6054431333746998e-01 5.8961729983323909e+00 0 1 0
889 1 7.9291909318100560e+00 9.8791578181709871e-01 5.2290790081377496e+00 0 1 0
1865 1 6.4521790840618420e+00 9.8592699331147324e-02 8.9125835376754026e+00 0 1 0
1654 1 8.1243572157739301e+00 1.1051597692874087e+00 6.2496264187353230e+00 0 0 0
1488 1 6.9271443587186123e+00 4.6187714456635431e+00 9.6512869485631434e+00 0 0 -1
284 1 1.1860869390959036e-01 2.5264665381162477e-01 7.0178300007568604e+00 0 1 0
610 1 2.8717063836839269e+00 2.1551838799961711e+00 5.0183395563201101e+00 0 0 0
134 1 7.7801848038160470e-01 3.3975601743894459e+00 6.0758145776284120e+00 0 0 0
1021 1 8.7923128690057979e+00 2.9415074532932017e+00 9.3181715205182716e+00 0 0 0
1566 1 7.1888760718747289e+00 3.6420901599953526e+00 8.2562488890981260e+00 0 0 0
110 1 1.0253270780559354e+00 1.8880193623623411e+00 5.7045579105607835e+00 0 0 -1
26 1 6.7499085965318306e-01 2.7933802313782863e+00 5.1735921796291668e+00 0 0 0
695 1 2.1910333363586574e+00 1.9219709497570976e+00 5.9295401446133154e+00 0 0 0
602 1 1.7775274669266672e+00 2.4474197449479846e+00 5.0797237704374432e+00 0 0 0
2586 1 1.6300763291739195e+00 2.7441934270853166e+00 6.2021638492833278e+00 1 0 0
4302 2 2.4491099752886765e+00 2.7907005190252976e+00 5.8999900724326766e+00 1 1 0
1180 1 3.2713602084813242e+00 2.1072147518394519e+00 6.0545197483006508e+00 0 0 0
1482 1 3.6890797539002644e+00 2.7267930173935988e+00 5.2719510610822322e+00 0 0 0
370 1 3.1251207556027332e+00 3.3019567959326784e-01 8.2107610416243428e+00 0 1 0
675 1 3.1704328313881995e+00 3.1266029708915650e+00 6.1313020921540371e+00 0 0 0
676 1 2.7710640444563506e+00 3.2669854626316979e+00 5.1639639364645920e+00 0 0 0
1114 1 4.5835402145068764e+00 2.1215250675979664e+00 5.3260710293207953e+00 0 0 0
1187 1 5.1863314433304160e+00 2.2143421034428847e+00 6.1034269129125338e+00 0 0 0
659 1 4.2326811693270434e+00 2.8995323979048848e+00 6.2229021831740639e+00 0 0 0
3713 2 4.9541543577760523e+00 2.8677812005842385e+00 5.6381934559995521e+00 0 0 0
698 1 4.2096070088392112e+00 1.8383428921440779e+00 6.3148671953689144e+00 0 0 0
1177 1 5.5684610134249315e+00 2.1538559272704800e+00 5.0914653979787969e+00 0 0 0
1853 1 6.1666927389781705e+00 1.8011812639555358e+00 6.1555674463960095e+00 0 1 1
3123 1 6.2292906359077609e+00 2.7811130362706851e+00 5.9706225983352592e+00 1 0 0
3577 2 6.8829888045047403e+00 2.2905431504262967e+00 6.1682668437098656e+00 0 0 -1
1676 1 6.7735808623893723e+00 2.2054819672436285e+00 5.2428309877700423e+00 0 0 0
1647 1 7.1642752806907080e+00 1.4827703146282720e+00 5.8948083133703975e+00 0 0 0
3707 2 7.2705197133419981e+00 1.2729156398441357e+00 9.2524531381372039e+00 0 0 -1
592 1 1.4281829656164928e+00 4.8821971296349087e-01 8.7421933697123961e+00 0 0 -1
1153 1 7.7279440002612390e+00 2.2251596323980420e+00 6.5299446394583729e+00 0 0 0
160 1 2.3227476508888554e+00 4.6420694885244362e+00 5.9185351470301990e+00 0 0 0
998 1 8.1281385500698224e+00 4.5246606788209753e+00 6.6606253583577875e+00 0 0 0
2453 1 7.1893488069960743e-01 3.9603705574527921e+00 5.1502325071639365e+00 1 0 0
1963 1 9.0866311529777750e+00 2.3707601607894744e+00 4.8925392800809364e+00 0 0 0
1688 1 9.5216326477398070e+00 4.3021443968937820e+00 5.3641890948221844e+00 0 0 0
1079 1 1.6356265000312544e+00 3.4305604447564848e+00 5.3267365304620551e+00 0 0 0
223 1 1.3382480020246574e+00 4.2761752902945780e+00 5.9034572290357206e+00 0 0 0
1133 1 2.2321274185903897e+00 3.5859022058864292e+00 6.1301457168376583e+00 0 0 0
250 1 2.7312434317123607e-01 2.1791927843992409e-01 5.9102069181032526e+00 0 1 -1
1115 1 8.7584381244858474e+00 3.8048209644102764e+00 6.0111984627394639e+00 0 0 0
601 1 3.2664564933432785e+00 4.1256545033927825e+00 5.7535325469423260e+00 0 0 0
1093 1 4.6202762875854955e+00 3.7377468434507568e+00 5.6298252031824685e+00 0 0 0
1644 1 8.4538688084141071e+00 3.2034124893103781e+00 5.1035712878057353e+00 0 0 0
2088 1 5.5780955464160442e+00 3.4463060979386695e+00 5.3487859810065990e+00 0 0 0
127 1 5.2200514157392259e+00 3.2991252276610874e+00 6.4768209951331670e+00 0 0 0
784 1 8.3887554773250894e+00 9.4336489028629000e-01 7.2753285345805736e+00 0 1 0
1085 1 6.6749882787252632e+00 3.5672327880221384e+00 5.4483236022081343e+00 0 0 0
3016 1 6.1163937675750075e+00 3.9298898854406508e+00 6.2209624933401679e+00 1 0 0
1184 1 7.2245455587327827e+00 4.2188140094810249e+00 6.2819469335951430e+00 0 0 0