LAMMPS data file via write_data, version 12 Dec 2018, timestep = 496320

4320 atoms
2 atom types

0.0000000000000000e+00 1.9309999999999999e+01 xlo xhi
0.0000000000000000e+00 1.9309999999999999e+01 ylo yhi
0.0000000000000000e+00 9.6549999999999994e+00 zlo zhi
7.2605599999999981e+00 0.0000000000000000e+00 0.0000000000000000e+00 xy xz yz

Masses

1 1
2 1

Atoms # atomic

4263 2 5.3330405821481550e+00 4.2436168932903291e+00 2.3330124591771448e+00 1 0 0
2108 1 5.9407829282648859e+00 3.0852236401206028e+00 4.7550072587590035e+00 0 0 0
1433 1 8.4494084483120560e+00 4.1058110493544460e+00 1.5678383628606436e+00 0 0 0
2159 1 8.9047593377164134e+00 2.8187658854444209e+00 4.0940201181456368e+00 0 0 0
1684 1 1.0098245638133751e+01 2.9724492743134179e+00 2.4720642194340199e+00 0 0 0
1502 1 7.5719119674258195e+00 4.2097512992901818e+00 2.0269134500338559e+00 0 0 0
1103 1 7.4867154631168944e+00 2.8866306657085383e-01 4.3418504507658033e+00 0 0 0
1098 1 7.0341033240567956e+00 1.6363026208379297e+00 1.7827449569598597e-01 0 0 1
1979 1 8.3735389656118375e+00 1.9452116503034222e+00 2.5264130514679799e+00 0 0 0
851 1 9.9890656596650507e-01 1.5896005429451074e+00 5.8374648464376966e-01 0 1 0
253 1 1.3906003667388240e+00 8.6049778407950284e-01 1.2433963606545282e+00 0 1 0
1190 1 1.8874637943106531e+00 1.8088564654351200e+00 1.1500499831743762e+00 0 0 1
3918 2 1.7765106322910986e+00 1.8652623372481161e+00 2.9639975909244248e-01 0 1 0
30 1 5.2826289873213703e+00 3.6962742342589601e+00 3.9976426545543107e+00 0 0 0
1127 1 1.8928771398292878e+00 1.0016733163743010e+00 2.2240742719350776e-01 0 0 1
1554 1 2.8168256662095108e+00 1.2344816800353158e+00 9.5299656569341451e-01 0 0 1
4116 2 2.3375847243010428e+00 8.3385116190504793e-01 1.6457989671439641e+00 1 0 -1
95 1 3.2037298134411389e+00 4.8628294878395190e-01 1.6576750157547149e+00 0 0 0
586 1 1.6329227136155757e+00 4.1866377438270357e+00 2.4669638678930417e+00 0 0 0
2275 1 1.0057574987320068e+01 3.2594045591638072e+00 1.3779195090412786e+00 0 1 0
870 1 3.7761603222868922e+00 1.4481149302807264e+00 1.4454548779379974e+00 0 1 1
1798 1 4.4412700423831994e+00 7.2377810455710223e-01 1.1112927156007353e+00 0 1 0
548 1 4.8194279317403375e+00 2.8897319794998197e+00 4.7696977265564273e+00 0 0 0
1711 1 7.9463596836822834e+00 2.4231472096161042e+00 6.6459584984288955e-01 0 1 0
1615 1 5.4786303662286295e+00 1.0969012900025037e+00 1.1802922839449794e+00 0 0 1
1678 1 7.7959810524362219e+00 2.6265378306735387e+00 3.1061022455563294e+00 0 0 1
987 1 4.6498634839593729e+00 1.4051197988857544e+00 3.7578567536698176e-01 0 0 0
1286 1 2.3609273320411046e+00 8.2062293293271617e-03 3.3481215903416386e+00 0 1 0
1485 1 9.0866487219386176e+00 3.6054478534468798e-01 2.6868865007422311e+00 0 0 0
3468 2 6.3303929731648765e+00 7.8821284754945897e-01 1.2505994100007172e+00 -1 0 1
1491 1 2.4954557584715880e+00 2.6519680653636912e-01 4.7955958641239089e+00 0 0 -1
1470 1 7.9022548537031705e+00 2.4903415631136765e+00 1.7290855265438922e+00 0 0 0
624 1 5.7563784182373938e+00 1.7280927597983344e+00 9.7801477673604573e-02 0 0 1
2131 1 1.0618153219796373e+01 4.5676115953054541e+00 3.3859030717627112e+00 0 0 0
1441 1 8.9218801884533789e+00 1.6123673415903381e+00 2.9054800593236779e-01 0 0 0
2081 1 9.5387438091116277e+00 1.8698734566098953e+00 4.1245074572488081e+00 0 0 0
2460 1 9.5871166200986480e+00 3.6650502555716042e+00 3.9983239434269855e+00 0 0 0
3590 2 5.2752310543715133e+00 4.5236528461150733e+00 4.1943581752892278e+00 0 0 -1
1160 1 7.1363875150925296e+00 6.3215095779143471e-01 1.4977862251013463e+00 0 0 0
1505 1 3.3246171037895831e+00 3.9171131418491991e+00 4.0542708855422847e+00 0 0 0
3601 2 1.0164985409325617e+01 2.2685945681967783e+00 5.0090314304252526e-01 -1 0 1
3750 2 1.2960984626329179e+00 2.3757031178386385e+00 8.9746666323636881e-01 0 0 1
34 1 2.1322293090281672e+00 2.7292849429788570e+00 5.6561432904980713e-01 0 0 0
1065 1 1.6240602309350021e+00 2.8477839450916482e+00 1.6268389070925078e+00 0 0 0
968 1 3.1773357477137889e+00 2.4262596281464726e+00 6.4281827107372280e-01 0 0 1
3708 2 2.6466985416511197e+00 2.2261937996918046e+00 1.3359916761111357e+00 0 0 0
1166 1 2.7452214927529086e+00 3.0757782684301804e+00 1.3521131167102460e+00 0 0 1
3768 2 3.0047084284434904e+00 3.2827731099140722e+00 5.5631776168011871e-01 0 1 0
3676 2 7.4826439305221033e+00 9.2925636808550383e-01 2.4211779378950977e+00 0 1 1
3757 2 4.6864371413758166e+00 1.5600018193788847e+00 1.2545884918376589e+00 0 0 1
1764 1 4.1955729831276898e+00 2.2216159489725320e+00 8.1872427400504977e-01 0 1 0
1617 1 5.2622608977343432e+00 2.0868314196161268e+00 1.0243133428681057e+00 0 0 1
2174 1 3.3527323163466001e+00 3.4570227531759562e-01 6.3752999114886921e-01 0 1 0
1499 1 6.3043847434660059e+00 1.7644313799703017e+00 1.0357517557607763e+00 0 0 1
1544 1 8.1041979988218635e+00 1.1465247177406188e+00 7.3658329136407763e-01 0 0 0
1946 1 9.2607656351747352e+00 3.6157107613840558e+00 2.1968274774009746e+00 0 0 0
1965 1 8.0830089127198228e+00 1.1382462015805515e+00 1.8391799708844774e+00 0 0 0
1145 1 7.7378371022355665e+00 4.0561913343488598e+00 4.0674180400724920e+00 0 0 0
1571 1 7.0649860873514285e+00 4.8255079699633123e+00 2.7066769923154350e+00 0 0 0
4242 2 8.6018254865613937e+00 3.5442806570898056e-01 1.9707105259840654e+00 0 0 1
2048 1 1.0227345824576599e+01 4.0896557117275742e+00 2.4779651078257743e+00 0 0 0
3121 1 7.9322359907848394e+00 3.1196331725146482e+00 4.6602932884346524e+00 0 0 0
3793 2 6.0253906254784031e+00 8.5910015352979267e-03 3.6657393592977561e-01 0 1 0
1513 1 6.1772673184518183e+00 4.1439182786914754e+00 9.0359831050265305e-01 0 0 0
952 1 7.3055459373208205e+00 1.6732333008091023e+00 1.3339997562761938e+00 0 0 0
656 1 2.3009501713886582e+00 3.7702215794556535e+00 5.1565355474176688e-01 0 0 1
3798 2 9.4110025298917801e+00 1.8023580954736798e-01 3.5453622654924803e+00 0 1 0
1117 1 3.4978542163001776e+00 3.8628044878419425e+00 1.3418897312017825e-01 0 0 1
1493 1 9.8540017171693144e+00 7.4957638649195091e-01 4.0829678500811104e+00 0 0 0
668 1 2.0086345851120440e+00 3.8734081438637973e+00 1.5069041364392235e+00 0 0 0
2201 1 7.7133097268776449e+00 3.4113340378219141e+00 1.2181464847263015e+00 0 1 0
1472 1 8.2327782172905284e+00 3.3300326988756095e+00 2.2667980792786051e+00 0 0 0
1019 1 3.7810124004169356e+00 3.3050120198891912e+00 1.0190070189220370e+00 0 0 0
1198 1 3.0484297597480667e+00 4.1080032822521835e+00 1.1140874209778535e+00 0 1 0
3627 2 3.9143195209325201e+00 4.2649801908705651e+00 8.2665611270188011e-01 0 0 1
1870 1 7.2837851468589836e+00 6.6515136681739828e-01 4.3367660824936582e-01 0 1 1
3503 2 7.0041132237805197e+00 1.5650319148716745e+00 4.0618072274517329e+00 -1 0 2
567 1 4.8756051751348313e+00 3.0449257931904250e+00 1.0324365001818052e+00 0 0 0
669 1 4.5541397200449740e+00 4.0386728799581233e+00 1.3852973886734605e+00 0 0 1
3865 2 5.2988718637590297e+00 4.0583123016498277e+00 9.2823830704683363e-01 0 0 0
1051 1 4.5969501550266862e+00 3.7868868627933541e+00 3.7432759006037719e-01 0 0 0
1783 1 3.3870267319803347e+00 2.9811288525712160e-01 3.0397761880835512e+00 0 1 0
628 1 5.8217701711712380e+00 4.1485734124578233e+00 4.7902545982213374e+00 0 0 0
3771 2 8.0750300396750987e+00 3.0069106475460599e+00 3.8193858815777002e+00 0 1 -1
503 1 6.9785592663793352e+00 2.5954690246183203e+00 1.1405420750720765e+00 0 0 0
1506 1 5.9719422627505594e+00 2.8931299867597167e+00 1.2510752590332224e+00 0 0 0
1564 1 6.9375321663120966e+00 3.4178969553905878e+00 5.2578526213063370e-01 0 0 1
1572 1 6.7416815917802175e+00 3.6924460154037089e+00 1.6639555118558227e+00 0 0 1
1671 1 8.7631916021367200e+00 3.2080075872619878e+00 1.0623574187367903e+00 0 0 1
577 1 1.7384195104784523e+00 2.0842273563292410e-01 1.9228472771382172e+00 0 0 0
2006 1 9.3737448993165149e+00 3.9168794113731282e+00 6.5933005345321816e-01 0 0 0
94 1 6.4420163901982885e-01 6.6419778000297536e-01 3.2333598049659473e+00 0 0 0
2145 1 8.5903172305013449e+00 1.9707537728346634e+00 3.4959989031246788e+00 0 0 0
2468 1 8.6560182960390648e+00 1.8952388929881838e+00 1.2543928202320465e+00 0 0 0
1001 1 6.3273807026211246e+00 2.5313291745364812e+00 2.1779423308161774e-01 0 0 0
3775 2 5.8877981318777781e+00 2.2796654492803484e-01 2.7550856082371622e+00 0 1 0
2649 1 9.7930363873451469e+00 2.7442923913129813e+00 3.5106896079834615e+00 0 0 0
1538 1 7.5498463503389095e+00 2.2798131911946234e-01 3.2596188717605337e+00 0 0 0
1000 1 9.6337176959430770e-01 1.9022911048344886e+00 1.6615263285908841e+00 0 0 0
1137 1 8.3722512597123675e+00 4.2737431626796401e+00 2.6518320110500371e+00 0 0 1
817 1 7.3208647029475293e-01 9.9485274305461424e-01 2.1816474761784144e+00 0 1 0
159 1 1.7803644948443564e+00 1.4122563556045549e+00 2.0635904532267912e+00 0 0 0
992 1 1.0445304174867232e+00 1.6183365879877201e+00 3.0968073121213173e+00 0 0 0
966 1 1.5786409190651400e+00 6.3603386740162771e-01 2.9224336059514688e+00 0 0 0
1134 1 2.2020801024751542e+00 1.7354912710953694e+00 2.9103605016330913e+00 0 0 1
1040 1 2.8672026892022031e+00 1.4838899907902710e+00 1.9745999699283445e+00 0 0 0
1358 1 2.5545992673633546e+00 7.0482524365859545e-01 2.5127268411525030e+00 0 1 1
1621 1 6.7521358307098929e+00 3.9571812459160220e+00 3.3755272860728449e+00 0 0 0
3878 2 3.4627337934699876e+00 9.3731194922683359e-01 2.4045129970353369e+00 0 0 1
631 1 3.1352971725507826e+00 1.3060556773681791e+00 3.1491595341932324e+00 0 0 0
3756 2 4.9698356280833718e+00 5.6367883338571445e-01 1.8030717449801346e+00 0 0 1
2462 1 1.0812971866790665e+01 4.6951679962126285e+00 1.4629257875030612e+00 0 0 0
575 1 4.1790940187873886e+00 1.0508699533498242e+00 2.9277368997776207e+00 0 0 0
722 1 4.6135409308200446e+00 1.2800432174417433e+00 2.0658447428197126e+00 0 1 0
1147 1 5.0090278805885724e+00 4.4410415714395324e-01 2.7104326350147985e+00 0 0 1
1351 1 5.7725796773681406e+00 5.0439719483819700e-01 1.9434575086090242e+00 0 1 0
1022 1 2.3259236562657639e+00 4.7848580015712932e+00 3.1569993808727768e+00 0 0 -1
2538 1 9.0270211695973419e+00 8.9840480864568273e-01 1.1480009453195184e+00 0 0 0
1457 1 8.5801305620332524e+00 3.6298524151968059e+00 3.5069506535657000e+00 0 0 0
955 1 6.0419451001024944e+00 4.5327641397561163e+00 3.7950146198383075e+00 0 0 0
2646 1 1.0039644777549425e+01 1.1680617346023148e+00 2.4877868453048726e+00 0 0 1
4228 2 8.4912647328110147e-01 2.9948461982442159e-01 1.7012035437460176e+00 1 0 0
2513 1 8.1206449029045729e+00 2.3158749152012637e-01 1.2745932453139281e+00 0 0 0
3847 2 7.7383303244506418e+00 4.5261561807439072e+00 3.2823627911033726e+00 0 0 0
50 1 3.7740716816603159e+00 4.7701811526394042e+00 1.5560344866688374e+00 0 0 0
2171 1 1.0399499102547232e+01 3.5868378431522228e+00 3.3267352531855421e+00 0 0 0
4044 2 1.0617754049884166e+01 3.8375445535121635e+00 1.7819577092796308e+00 0 1 0
2544 1 9.8948139279824812e+00 2.7900561656507965e+00 4.6532644622330803e+00 0 0 0
1562 1 5.5074153985945449e+00 4.7696805733482313e+00 1.5905732547290268e+00 0 0 1
1376 1 1.3892792865764323e+00 2.4303823443422097e+00 2.5739114166281287e+00 0 1 0
1359 1 6.2640578952001560e+00 8.1904796188276674e-01 3.6443899365307714e-01 0 1 1
2941 1 2.2803338269806592e+00 3.3327966514141578e+00 2.4067309782108941e+00 1 0 0
3608 2 2.1498562810396225e+00 2.6221576953759875e+00 2.9775331885213410e+00 0 0 0
3128 1 1.5114235240412555e+00 3.3462707246708079e+00 3.1675677558821524e+00 1 0 0
555 1 2.4039450633633401e+00 2.4033934770501100e+00 2.1447534889252573e+00 0 0 0
505 1 3.4582188299684651e+00 2.4806359997920651e+00 1.6957677468662464e+00 0 0 0
663 1 3.0598821934119478e+00 2.3936396123954822e+00 2.9362147148928068e+00 0 0 0
3686 2 3.0606830299730658e+00 3.0313756260984608e+00 2.2691039441029348e+00 0 1 0
1446 1 4.1280064009617217e+00 2.8347525193736494e+00 2.6962670220072589e+00 0 0 0
568 1 3.7226472815457581e+00 1.7845682370896467e+00 2.4345746754454640e+00 0 0 0
3703 2 4.2868031952459562e+00 3.1408935363019479e+00 1.7105176545182643e+00 0 0 0
3533 2 5.1750951264677241e+00 1.3132197516336170e+00 2.7240998166015791e+00 0 1 0
1462 1 4.5160799367016429e+00 2.3329241071427567e+00 1.7517752875478401e+00 0 0 0
1511 1 4.8585961602536774e+00 2.1063191724212968e+00 2.8296165466194618e+00 0 0 0
1561 1 5.3594036630624071e+00 2.7556634403386377e+00 2.0462598876626061e+00 0 0 0
2197 1 5.9693065476369851e+00 1.0622237082633301e+00 2.8658964821065309e+00 0 1 0
566 1 5.5486908215314648e+00 1.7293776984877685e+00 2.0414559467720821e+00 0 0 0
1437 1 6.3571695817260530e+00 2.4023076307654390e+00 2.0692405953932176e+00 0 0 0
2101 1 6.5436220062082349e+00 1.2786279623156509e+00 1.9590623838952508e+00 0 0 1
3946 2 6.4539437328110179e+00 1.7935753359611060e+00 2.6725803771302310e+00 0 1 0
1721 1 5.8705120161168534e+00 2.2934378971711418e+00 2.9802847761677542e+00 0 1 0
2421 1 6.9028877122648957e+00 2.1463906799014714e+00 3.3342898234988425e+00 0 0 0
2689 1 8.2206088209792565e+00 9.5614521749892545e-01 2.9273394973438949e+00 0 0 0
2667 1 1.1272432137730789e+01 4.6141381643996162e+00 4.2417547318858340e+00 0 0 0
1191 1 4.3801139944635654e+00 4.4886814095058254e+00 3.8469148318938240e+00 0 0 0
1696 1 6.8041970807266035e+00 3.9218386160571703e+00 4.4836343933324443e+00 0 0 0
1489 1 9.2751194951794798e+00 1.1816562871957652e+00 3.3390808315638116e+00 0 0 0
2037 1 6.1264790310319963e+00 4.3630411346967879e+00 2.6154482852309173e+00 0 0 0
1031 1 1.0567036514329715e+01 4.0590400414161776e+00 6.7258235224083351e-01 0 0 0
2112 1 9.8961823740880188e+00 4.3066332422951916e+00 1.5042569230570288e+00 0 0 0
1588 1 8.5028453526344023e+00 4.6365398991959204e+00 3.7232896173418748e+00 0 0 0
2141 1 7.3168913628719778e+00 4.3790291120906861e+00 9.8148256715703075e-01 0 0 1
242 1 2.2574675281185845e+00 2.7366293448745266e-01 9.5316953446807640e-01 0 0 1
2592 1 1.0207330007871390e+01 4.3808304762777164e+00 4.3286474747605821e+00 0 0 0
1039 1 2.7196032810598929e+00 4.3096582596194546e+00 2.1902847601838871e+00 0 0 0
1527 1 9.8706416217942152e+00 3.0709088227315564e+00 1.2420167793880607e-01 0 0 0
3619 2 2.1398771835728545e+00 3.8650162043572545e+00 3.1033114672107218e+00 0 0 1
1029 1 5.2565926602406394e+00 5.5660975448621153e-01 2.8806923610306895e-01 0 0 0
1076 1 9.9040115478903417e+00 1.3643281343501072e+00 6.4398833652467935e-01 0 0 0
1682 1 6.2011920697066838e+00 3.1006918248850455e+00 3.7373629652307621e+00 0 0 0
1440 1 3.1096409923242723e+00 3.8157471504390106e+00 3.0125749647057600e+00 0 0 0
664 1 3.5837978132731347e+00 3.6469255439792900e+00 2.0360689609165523e+00 0 0 0
550 1 3.7010595592304156e+00 4.6072745190780413e+00 2.6544186731908312e+00 0 0 0
655 1 4.6351730726753324e+00 4.7445452778763375e+00 2.2030149977222342e+00 0 0 1
994 1 4.1328534811448261e+00 3.7200854366521496e+00 3.2263891384999401e+00 0 0 0
1428 1 5.5588795439124530e+00 3.7276426473284339e+00 1.6950434219913637e+00 0 0 0
1613 1 8.7164791071862595e+00 3.9215969657637690e+00 4.4954904875806871e+00 0 0 0
534 1 5.3194389666447037e+00 3.1129781671141314e+00 3.0510217374704847e+00 0 0 0
1271 1 4.7218604696675186e+00 3.6475940757302001e+00 2.3277972364005914e+00 0 1 0
1474 1 9.3576402361827924e+00 4.2939879291536052e+00 3.0846371179718526e+00 0 0 0
3838 2 5.8724820098173893e+00 3.7512514535289196e+00 3.2367228854026062e+00 0 0 0
3127 1 2.2637588754622797e+00 4.1128152944662366e+00 3.8916497600400159e+00 1 0 0
1072 1 7.1952150246113789e+00 2.9541496538777889e+00 2.3236521565050543e+00 0 0 0
1535 1 6.1686501394571778e+00 3.3278201897823037e+00 2.5081638995033870e+00 0 0 0
3964 2 6.8165187486399983e+00 3.0620594656510787e+00 3.1122912703808678e+00 0 1 0
1858 1 6.7790899563764162e+00 1.0835599666916778e+00 4.6766349475011904e+00 0 1 0
1988 1 9.6823513300563580e+00 1.6885081880439399e+00 1.6025197266988840e+00 0 0 0
2076 1 7.0271431110208837e+00 1.1771791598447954e+00 3.0795728481559093e+00 0 0 1
2850 1 9.0191837930680805e+00 1.2298988790582746e+00 2.2224635295405877e+00 0 1 0
2012 1 9.0788651671150955e+00 4.7223954898429890e+00 2.0824658659948745e+00 0 0 0
1607 1 8.3988247970729972e+00 4.3238621119047158e+00 5.0925724838601427e-01 0 0 1
599 1 1.8853686781482113e+00 5.5728415956155941e-01 4.0538063198730532e+00 0 0 0
4129 2 9.5433473999545821e+00 3.4757356394583727e+00 3.0802092508079246e+00 1 0 1
1122 1 8.6901780224501390e+00 2.9414184285580175e-01 3.4755345421251871e-01 0 0 0
3730 2 9.9202077955298762e+00 2.4985851282069222e+00 1.7715516643318163e+00 0 0 -1
2631 1 9.5470809565883634e+00 2.0308913054755062e+00 2.6675621651110193e+00 0 0 0
4267 2 4.4659586904249124e+00 4.6881477092238075e+00 2.9783579149435271e+00 1 0 1
1880 1 7.6916432998945510e+00 3.6322764196321895e+00 3.0700271292725132e+00 0 0 0
4056 2 1.0347008077428850e+01 2.2904321941304397e+00 3.0786754681679098e+00 0 0 0
3464 2 1.1714601584389162e+00 1.0445035933619253e+00 3.7909492528448818e+00 0 0 -1
652 1 1.4170831152323471e+00 1.6804984032791019e+00 4.3337310252289916e+00 0 0 0
1622 1 7.2118685350454301e+00 3.0665089367474039e+00 3.8816994039052024e+00 0 0 0
991 1 6.7771304005759720e+00 3.7888673218711671e-01 2.4703597717587220e+00 0 0 0
4264 2 2.4036804220337515e+00 8.4441575544463809e-01 3.3721559166343882e+00 1 0 1
1054 1 2.9814637536724171e+00 6.6232714725577257e-01 3.9857887921529644e+00 0 0 0
481 1 2.3552898049677524e+00 1.5877623090234754e+00 3.9732994321596058e+00 0 0 0
235 1 3.9083884644277047e+00 1.0342639133825011e+00 3.9716465156234126e+00 0 0 0
887 1 7.5383478468430876e-01 6.8290477187492293e-01 4.4693856202390529e+00 0 1 0
3856 2 4.5525330380617639e+00 4.6364396272962694e-01 3.5969970715029498e+00 0 0 0
2360 1 4.7283391573019298e+00 6.5073593350220038e-01 4.4782594870812948e+00 0 1 0
1066 1 9.4981033810468958e+00 2.4192626890418492e+00 9.1079865610787336e-01 0 0 0
3587 2 6.8852926501213485e+00 3.8535001507713305e+00 2.5461634874693817e+00 0 0 0
1950 1 6.6224116480279491e+00 6.0261910742253777e-01 3.8052090692064660e+00 0 0 0
4029 2 6.0561702187356925e+00 6.5209316591271183e-01 4.5026884885227778e+00 0 1 0
580 1 5.5233190612962835e+00 3.8065224752292620e-01 3.6611148902970054e+00 0 0 0
2132 1 8.5323413905469181e+00 3.3178009907350342e-01 3.8179392277259350e+00 0 0 0
4296 2 6.5291801239190521e+00 4.7552507102613566e+00 4.5421413065639049e+00 1 0 0
1425 1 7.6747914348716737e+00 2.1911674618591559e+00 4.0114596855159839e+00 0 1 0
1689 1 8.4239658085019240e+00 2.1248114458089837e+00 4.7024846143218051e+00 0 0 0
1242 1 3.6460418698684931e+00 1.3611809397430108e+00 3.1729538470737301e-01 0 1 0
906 1 7.3157690623194398e+00 1.8948237987217620e+00 2.3919554170057604e+00 0 1 0
1050 1 4.9096173547934834e+00 2.6182053399507739e+00 5.0584060946428755e-02 0 0 0
3772 2 1.1457716312389152e+00 6.7822486019838701e-01 4.3840888335178929e-01 0 1 1
4281 2 9.3710585849169288e+00 8.3499059531939546e-01 2.5812757041466516e-01 0 1 0
2084 1 8.0623667915432851e+00 3.3667872561342977e+00 2.2977077093955448e-01 0 0 1
2854 1 8.7285492446044994e+00 1.2860497075668598e+00 4.3039348135183815e+00 0 1 0
1357 1 4.0935608653138482e+00 3.4875593602100841e-01 2.1381707447938738e+00 0 1 1
3606 2 1.3828572865844249e+00 3.3200362859529644e+00 2.3357802181045297e+00 0 0 0
3040 1 2.7981431514937825e+00 4.6587248830419439e+00 1.6907555186206530e-01 1 0 0
1519 1 7.7988920736202942e+00 1.5103261423268718e-01 2.2770708528277925e+00 0 0 0
1165 1 1.5945957159076825e+00 2.3911127648195505e+00 3.5979652461093123e+00 0 0 0
802 1 1.5986871285690829e+00 3.2892021224169983e+00 4.2141662824301118e+00 0 1 0
572 1 2.4754717634587147e+00 3.1231929656711297e+00 3.6095561739551831e+00 0 0 0
1167 1 2.3866003509070288e+00 2.5398021211179600e+00 4.4227425827913702e+00 0 0 0
1071 1 5.6525938240254483e+00 1.4378830185209928e+00 4.6876665747822388e+00 0 0 -1
3719 2 2.4596845349298948e+00 3.3843466102084925e+00 4.4724898303489056e+00 0 0 -1
4119 2 2.7578248154828984e+00 2.2361944406813787e+00 3.6703506799575378e+00 0 0 0
1007 1 3.3666202675596661e+00 2.0286640253477373e+00 4.2742630684967633e+00 0 0 0
2164 1 3.5730638341175074e+00 2.9390607798191968e+00 3.6923799459058899e+00 0 0 1
3884 2 4.0137650202843238e+00 2.6804816329951993e+00 4.4976551684144290e+00 0 0 1
1062 1 4.0214363272292104e+00 1.9639004283773378e+00 3.4500966136909321e+00 0 0 0
1194 1 5.0157795655361657e+00 1.3088028253237827e+00 3.6336201649659898e+00 0 1 0
814 1 4.4743234312275924e+00 1.8738588133845770e+00 4.3730815387191129e+00 0 1 0
1081 1 4.6227432401322712e+00 2.8361943304205779e+00 3.7426082977661217e+00 0 0 1
860 1 5.5188843162844803e+00 2.3307782564045776e+00 3.9322540961742627e+00 0 1 1
3460 2 7.7801991162508424e+00 1.6803153913604698e+00 3.1448728232483063e+00 -1 0 0
2250 1 7.7619342346995683e+00 1.1969718200093560e+00 3.9054828479953034e+00 0 1 0
2098 1 5.5620581302299463e+00 3.4478713364013078e+00 3.7722789689576575e-01 0 0 1
1573 1 6.1386847513357896e+00 1.4674464786200381e+00 3.8248872116079768e+00 0 0 0
537 1 6.5369083194279440e+00 2.2454808053463942e+00 4.3506829956497626e+00 0 0 0
508 1 5.1639689684153689e+00 4.3090330463320905e+00 3.1778356443335127e+00 0 0 0
964 1 9.0831387409180859e+00 2.6464361820743623e+00 1.8907051789135527e+00 0 0 0
2063 1 8.9057105852205183e+00 2.8318483329108610e+00 2.9221870156114926e+00 0 0 0
124 1 4.2112627046674813e+00 3.5676943103363823e+00 4.3845538116113323e+00 0 0 0
4133 2 9.3925911742757648e+00 4.3681968881598419e+00 4.7109390610510342e+00 0 0 0
1536 1 6.6014005634332298e+00 4.7424762452589118e+00 1.7046550631104755e+00 0 0 0
733 1 3.9158580637113500e+00 2.9250835816071863e+00 1.1590265115162314e-02 0 1 0
4063 2 8.3381112189470379e+00 1.6156420927307132e-02 2.9468553038667400e+00 0 1 1
835 1 6.4090305026580208e-01 9.2112766135117263e-02 8.4394023167487731e-01 0 1 0
2167 1 1.0717234310306072e+01 3.4180764162029398e+00 4.4837023978344668e+00 0 0 0
4042 2 2.0572291125238125e+00 1.0767810337743822e+00 4.7244616035790585e+00 0 1 0
3688 2 1.8690768341682640e+00 4.0790905444739201e+00 4.7175340619814259e+00 0 1 0
21 1 1.1047239785720329e+00 2.4577770450832968e+00 7.0906124634994336e-02 0 0 0
1526 1 3.2662215932302994e+00 3.1079142478832291e+00 4.7952868691845296e+00 0 0 0
3482 2 7.5966887146314734e+00 4.0774050055374289e+00 1.6204055415034355e-01 0 0 1
744 1 4.8476766048373667e+00 4.8178349156973432e+00 7.1170984674364124e-01 0 1 0
4177 2 3.8525178228941122e+00 1.5089622037982722e+00 4.8019716716105645e+00 0 1 0
1488 1 5.6037405014603534e+00 4.4403106315428573e+00 1.1069944589684214e-01 0 0 0
971 1 8.8975341636894871e+00 2.6697143511055552e+00 3.9055133612943160e-02 0 0 0
2007 1 1.1210845782598820e+01 4.7752968906846149e+00 2.5538889471972896e+00 0 0 0
1402 1 4.3630510656183787e+00 3.1731168859559157e-02 3.1539611403443901e-01 0 1 1
2100 1 9.0792812740366564e+00 3.5327742600207661e+00 6.1500098281959854e+00 0 0 0
3391 1 9.4675193676942389e+00 5.0013143222946432e-01 7.1874299920550415e+00 0 1 0
617 1 5.2727239227788258e+00 4.3402456168570920e+00 8.0308275149175063e+00 0 0 0
1171 1 8.0127979521268333e+00 2.6141168554967793e+00 5.6037465805225848e+00 0 0 0
1069 1 2.0845927682780778e+00 1.8254155246185773e+00 5.1701692585865917e+00 0 0 0
1082 1 9.8270507242663481e+00 2.8377242356033823e+00 5.7555945553181855e+00 0 0 0
1614 1 4.0426094473522269e+00 1.3680083859310979e-01 8.2318667872773919e+00 0 0 0
2038 1 1.0096813970873642e+01 4.0791941922868062e+00 5.9910392104654990e+00 0 0 0
4220 2 7.3768083434526321e+00 9.1165287303241227e-01 7.4051796322974877e+00 0 0 -1
3728 2 8.9629165300950415e+00 2.8365241476298704e+00 7.8863111067882388e+00 0 0 0
1628 1 7.7143310312198219e+00 3.8974312927090518e+00 8.1339216689303502e+00 0 0 0
2158 1 1.0154989829004212e+01 4.2783515348768306e+00 9.4838555528568840e+00 0 0 0
2165 1 9.8250320188264855e+00 1.9794097006718658e+00 6.3910615008842484e+00 0 0 0
3513 2 1.2796446705354731e+00 1.8697626271930092e+00 5.5186756355654545e+00 0 0 0
842 1 1.2538003511155682e+00 1.1155775805420864e+00 5.2164897372610710e+00 0 1 0
913 1 1.5574717936379541e+00 1.4534739691334446e+00 6.2874784553723160e+00 0 1 0
517 1 4.3852855233636916e+00 4.5234082017941857e+00 9.2952002571625822e+00 0 0 0
1904 1 7.0892284468716804e+00 1.1468362904318787e+00 5.7463847117856801e+00 0 1 0
3611 2 3.0079517161025651e+00 6.1072820406758421e-01 5.4736842372808034e+00 0 0 1
3752 2 2.7833404604037795e+00 1.5268353119935207e+00 5.6984415058312070e+00 0 0 0
526 1 2.1421351099105781e+00 8.3132753619481925e-01 5.5706704162854157e+00 0 0 -1
1080 1 2.9141278995964388e+00 9.7308838417637866e-01 6.3105032623933042e+00 0 0 0
1514 1 5.5927445200827481e+00 2.7488196764913533e+00 8.9642926699414378e+00 0 0 -1
1128 1 3.6591631489739678e+00 1.3345220588089781e+00 5.6184889853812097e+00 0 0 1
1557 1 8.7140712510984262e+00 3.7225648621003660e+00 8.2308355451180422e+00 0 0 0
2053 1 8.0187041671476091e+00 1.4237852845036398e+00 6.3856350711527465e+00 0 0 0
1683 1 4.5028296619457588e+00 7.3131898016676777e-01 6.3060069439734887e+00 0 0 0
1199 1 4.6111083327691205e+00 1.2960412444442917e+00 5.2934128770834832e+00 0 1 0
3749 2 7.4395727307350326e+00 3.0739522729282958e+00 8.4320906776699243e+00 0 0 0
4122 2 5.2016702112914208e+00 7.3298662307103435e-01 5.3317432099913731e+00 0 0 0
1349 1 5.3600308853430958e+00 2.5920610551547829e-01 6.0959716277773977e+00 0 1 0
889 1 6.0712193464116284e+00 6.4173805583485322e-01 5.3854454057703300e+00 0 1 0
1021 1 7.3074731405282645e+00 2.6057989832991715e+00 9.5466381793414570e+00 0 0 0
1654 1 6.2652348801759672e+00 7.2256325513185782e-01 6.4035106743295174e+00 0 0 0
1836 1 5.2978423844680886e+00 1.7147601664082110e-01 8.1096100730574214e+00 0 1 0
1101 1 1.7545690354661247e+00 4.4452173360363121e+00 6.8468024137003773e+00 0 0 0
3443 1 9.9533249939074722e+00 1.1521314640929774e+00 9.2854585369522464e+00 0 1 0
2612 1 9.6156486070272358e+00 1.8290264649953458e+00 8.4057531867492798e+00 0 0 0
351 1 1.4839129709856995e+00 1.1001253964004021e-01 5.0587969190349158e+00 0 1 -1
1566 1 5.9011207269968047e+00 3.4687096413331377e+00 8.3147727156774369e+00 0 0 0
2619 1 9.6602025191503440e+00 4.2971572672529152e+00 6.9368125020677791e+00 0 0 0
3584 2 7.7337305525389244e-01 1.4645175704465863e+00 9.3920927859765442e+00 0 0 0
1518 1 7.3895412155271014e+00 4.6026407483710381e+00 5.0170352129984810e+00 0 0 0
3975 2 1.0320360368113759e+01 3.7418274714885817e+00 7.2076659076987530e+00 0 0 -1
3761 2 6.1633474906809997e+00 4.5840873890529501e+00 6.9311541573036317e+00 0 0 0
1958 1 9.7449626008003047e+00 2.1497538400489042e+00 9.4214019472332069e+00 0 0 -1
1180 1 1.7934852176952032e+00 2.4761497962457160e+00 6.0325517171178298e+00 0 0 0
1482 1 2.2466501648961987e+00 3.2079039381858308e+00 5.3238343061141684e+00 0 0 0
370 1 1.6657421636841196e+00 5.8383356289563693e-01 8.1743510389629499e+00 0 1 0
675 1 1.8411924851861783e+00 3.5293660532519477e+00 6.2450831737815600e+00 0 0 0
1565 1 1.3223582194414196e+00 3.2603854007098234e+00 7.8517904490883286e+00 0 0 0
1114 1 3.0420065128146008e+00 2.2412465442693907e+00 5.3376462525506119e+00 0 0 0
1187 1 3.5905931466056313e+00 2.2502949705886981e+00 6.1931343281502595e+00 0 0 0
659 1 2.8064408848634859e+00 2.9817969932475461e+00 6.1469214405172208e+00 0 0 0
3713 2 3.5757975445055648e+00 2.8840537032394349e+00 5.7266350920381131e+00 0 0 0
698 1 2.6031013430167098e+00 2.0047553055588248e+00 6.3972908149765937e+00 0 0 0
1177 1 4.0635513195468809e+00 2.3153189407407950e+00 5.2319490101793669e+00 0 0 0
1853 1 4.6706448466862103e+00 1.7572590993418900e+00 6.3274254033219091e+00 0 1 1
3123 1 4.6035609793957519e+00 2.7907844476605046e+00 5.9858758095012519e+00 1 0 0
3577 2 5.3968045132213209e+00 2.2016014799299053e+00 6.2093642040222852e+00 0 0 -1
1676 1 5.2849017879287210e+00 2.2606141678857923e+00 5.3704013890293210e+00 0 0 0
1647 1 5.5659225171999598e+00 1.3546874128446234e+00 5.9328659105903805e+00 0 0 0
3707 2 6.1505142946968308e+00 1.0833391532473846e+00 9.2153351420074650e+00 0 0 -1
1438 1 8.1331303187874457e+00 4.2535956697807897e+00 9.1128878196693055e+00 0 0 -1
1153 1 6.1522748792541799e+00 2.0489098525290284e+00 6.4892949734465120e+00 0 0 0
1578 1 1.0232500411034435e+01 4.4605010234449480e+00 7.8086440408228155e+00 0 0 0
998 1 6.9631042879461980e+00 4.2312524967349114e+00 6.6333205710057692e+00 0 0 0
231 1 5.2976395865447614e+00 4.6562860309219687e+00 6.8912250262347250e+00 0 0 0
2610 1 8.5494150782798037e+00 2.1647148661673707e+00 8.2787826557580502e+00 0 0 0
1688 1 8.1492956384433786e+00 3.8077916234355227e+00 5.4343535418365523e+00 0 0 0
3174 1 1.0518171739710480e+01 2.6233601497560617e+00 9.0139730731287582e+00 0 0 0
2123 1 8.0886747214324366e+00 5.4042561616762086e-01 5.8484235605542070e+00 0 0 0
3867 2 8.2220820181559304e+00 4.4632242203834558e+00 4.8631148480507997e+00 0 0 0
3670 2 1.6851322873155552e+00 1.9472770269845655e-01 7.2951159258412650e+00 0 1 0
1115 1 7.3337005733349763e+00 3.3693027411094421e+00 5.9615931353426035e+00 0 0 0
601 1 2.0507219831124917e+00 4.4280554731128259e+00 5.8154513305104123e+00 0 0 0
1093 1 3.2428519499356558e+00 3.9601387392492589e+00 5.9094677083488270e+00 0 0 0
4130 2 7.6200272383611631e+00 4.3034710733009049e+00 7.3031393156588456e+00 0 0 -1
2088 1 4.1450899858776369e+00 3.5071332066279459e+00 5.4417827539583126e+00 0 0 0
127 1 3.8420249270213054e+00 3.2719505546375425e+00 6.4731514569235902e+00 0 0 0
784 1 6.5734239747608747e+00 5.9175198682741903e-01 7.4359397307121924e+00 0 1 0
1085 1 5.2587259078692261e+00 3.5079338232605579e+00 5.4796075627697149e+00 0 0 0
3016 1 4.7609739770098756e+00 3.8159409235001940e+00 6.2983359505881884e+00 1 0 0
1184 1 5.8992102617837840e+00 3.8710219043525207e+00 6.3235872103307242e+00 0 0 0
1030 1 6.0637755674908389e+00 2.8687864086768879e+00 5.7822745206419057e+00 0 0 0
1504 1 6.5308701619484495e+00 3.8182104089195050e+00 5.4898963009225534e+00 0 0 0
2071 1 7.6724355647711411e+00 3.5110134960421897e+00 7.0446295399616563e+00 0 0 0
2115 1 8.9755162476408987e+00 4.4468719516722405e-01 8.1673583746470086e+00 0 0 0
4030 2 8.1439051270619505e+00 3.2352733501900044e+00 6.1704834879203538e+00 0 0 0
1129 1 9.7159436339047662e+00 2.3802365814614515e+00 7.4085292920443306e+00 0 0 0
1086 1 8.2366018211256531e+00 2.9589789109636575e+00 8.9130692697966243e+00 0 0 0