LAMMPS data file via write_data, version 12 Dec 2018, timestep = 258720

4320 atoms
2 atom types

0.0000000000000000e+00 1.9309999999999999e+01 xlo xhi
0.0000000000000000e+00 1.9309999999999999e+01 ylo yhi
0.0000000000000000e+00 9.6549999999999994e+00 zlo zhi
3.7847599999999986e+00 0.0000000000000000e+00 0.0000000000000000e+00 xy xz yz

Masses

1 1
2 1

Atoms # atomic

4263 2 6.2467968560174407e+00 4.6557957119694677e+00 2.1374936158622448e+00 1 0 0
3847 2 8.7761552805771252e+00 4.7001713917750783e+00 3.4966268696855298e+00 0 0 0
1433 1 9.5928286041202071e+00 4.3843952854687958e+00 1.3543974762657141e+00 0 0 0
1218 1 4.6751688867792723e-01 1.2365041105857864e+00 9.8660035839964000e-01 0 1 0
3622 2 1.1586163768670614e+00 1.2549690981166810e+00 5.4086298183899939e-01 0 0 1
1502 1 8.6713508460037563e+00 4.5623862754305469e+00 1.9978443601110523e+00 0 0 0
2054 1 9.8319193142017998e+00 4.0916502217357413e+00 1.6572261412790995e-01 0 0 0
3205 1 1.3955384734501419e+00 2.1695083750981352e+00 8.8407389232633493e-01 1 1 0
1979 1 9.5907194103503883e+00 2.2143541839772674e+00 2.4318961196502622e+00 0 0 0
851 1 2.0978323959056295e+00 1.3894898634014459e+00 6.5563878483784943e-01 0 1 0
253 1 2.5422076433930809e+00 5.0261874054405720e-01 1.0694771309322977e+00 0 1 0
1190 1 3.0496824011435670e+00 1.5648391625395108e+00 1.1196473882132032e+00 0 0 1
3918 2 2.8016067808868623e+00 1.6949312055606252e+00 2.8958116275485596e-01 0 1 0
30 1 6.1975299958168613e+00 3.6830595446720240e+00 4.1328904852166959e+00 0 0 0
1127 1 3.1140400301360938e+00 8.6275317857207012e-01 2.3682844564568462e-01 0 0 1
1554 1 4.0213535823972855e+00 1.2510923942853516e+00 8.9809548461021482e-01 0 0 1
4116 2 3.4802492171398218e+00 8.7607559312414207e-01 1.4381432768014670e+00 1 0 -1
95 1 4.3012451919395147e+00 4.2368816475483273e-01 1.6626470637335682e+00 0 0 0
2513 1 9.3234432150217685e+00 4.2680707443795712e-01 9.6164156342247886e-01 0 0 0
57 1 7.1246505808723448e-01 1.8549964209557350e+00 4.7510024889621905e+00 0 0 0
870 1 4.9368361789457120e+00 1.3456975830497708e+00 1.3831588374202899e+00 0 1 1
1798 1 5.6993867298159167e+00 7.5030011646065964e-01 1.0120026217930078e+00 0 1 0
1098 1 8.2688155619895234e+00 1.8334897914385082e+00 2.0529733029722652e-01 0 0 1
1711 1 9.0321416608311278e+00 2.6173888895966240e+00 5.7479019877504134e-01 0 1 0
1615 1 6.6114439649772798e+00 1.2572390809590894e+00 1.0543390012003817e+00 0 0 1
1678 1 8.9024749408391735e+00 2.9261738483442943e+00 2.9892558103788671e+00 0 0 1
987 1 5.8142268772498831e+00 1.5766795837767478e+00 3.2606948450398809e-01 0 0 0
577 1 2.9585000810915796e+00 4.1189980138810388e-02 1.9232493610165222e+00 0 0 0
1359 1 7.3710225844144039e+00 1.1079532353596306e+00 3.2332124610578095e-01 0 1 1
3468 2 7.7442867899911629e+00 1.1362337019339634e+00 1.0958688747536085e+00 -1 0 1
1906 1 6.7270576090315073e+00 2.0150039796176908e-01 4.6787677661244391e+00 0 1 0
1470 1 9.0408181481874550e+00 2.7481334902645527e+00 1.6200638770651670e+00 0 0 0
2468 1 9.9375112748577621e+00 2.2037763799915866e+00 1.2868620652974001e+00 0 0 0
3137 1 5.1022260692395771e-01 2.9585990070545048e-01 6.9886502756070890e-01 1 0 1
115 1 1.4753729997418608e+00 6.0206997955926356e-01 1.0529758402451506e+00 0 0 0
1001 1 7.3685651083306469e+00 2.8372315138335362e+00 2.0173104201294106e-01 0 0 0
254 1 1.0769723485974143e+00 3.3394948203018378e+00 1.2436961970056855e+00 0 1 0
967 1 4.3660990957880624e-01 2.1549341293301856e+00 4.7562568459169424e-01 0 0 0
1160 1 8.4144719715859448e+00 7.3561911896132937e-01 1.5693421958494567e+00 0 0 0
3599 2 1.6566766422250949e+00 3.8912349931592396e+00 8.7401189139250646e-01 0 0 0
622 1 1.9849905567734023e+00 3.0330971631295576e+00 7.6768352128144846e-01 0 0 1
3750 2 2.2964534678753243e+00 2.1880877413589346e+00 8.9258419430110369e-01 0 0 1
34 1 3.1153248567636505e+00 2.4275703999133853e+00 6.3126220311396053e-01 0 0 0
1065 1 2.6560465188332953e+00 2.7101022323083841e+00 1.5254958796252587e+00 0 0 0
968 1 4.1938870446361367e+00 2.2952418131841954e+00 6.4756037036095360e-01 0 0 1
3708 2 3.7195867954701947e+00 2.0317504113012728e+00 1.2825127795242106e+00 0 0 0
1166 1 3.7891629203579482e+00 2.9391329628424852e+00 1.3838976883701744e+00 0 0 1
3768 2 4.1527554745384476e+00 3.1814772904143775e+00 6.3047728910621736e-01 0 1 0
3676 2 8.5294604801911760e+00 1.2752850551419261e+00 2.2421765587171123e+00 0 1 1
3757 2 5.7171660768334398e+00 1.5891146148753392e+00 1.1887165515712979e+00 0 0 1
1764 1 5.2621881662090555e+00 2.3196837647365034e+00 7.7898842074453845e-01 0 1 0
1617 1 6.3784996368283551e+00 2.3682708068824878e+00 1.0243296989684696e+00 0 0 1
2174 1 4.7713005397454094e+00 3.6081702589079317e-01 7.1171281805460362e-01 0 1 0
1499 1 7.4407629986826249e+00 1.9779469854898544e+00 9.1287588596190861e-01 0 0 1
1544 1 9.2547869986891218e+00 1.5056995720087356e+00 6.1951816191424580e-01 0 0 0
1946 1 1.0208515532634317e+01 4.1459876701598217e+00 2.2194888541557085e+00 0 0 0
1965 1 9.3137933569097271e+00 1.4208531168351424e+00 1.8324316096351525e+00 0 0 0
1145 1 8.7395457713462097e+00 4.3358531435084435e+00 4.3475719940285291e+00 0 0 0
2996 1 3.2762626638516332e+00 4.7738643528851963e+00 1.3418321632868027e+00 1 0 0
986 1 1.3368379398695696e+00 4.5686986436237760e+00 4.7790684997326736e+00 0 0 0
513 1 4.6884837544011440e+00 4.6753619452685795e+00 4.7680920752511655e+00 0 0 0
3793 2 7.0821321791840113e+00 2.2913912070807929e-01 2.4750099054136163e-01 0 1 0
171 1 1.4746008420434391e+00 4.6044890187038430e+00 1.2713074785847074e+00 0 0 1
1513 1 7.1107289661090931e+00 4.1915979780179748e+00 8.6884552883302069e-01 0 0 0
952 1 8.5035710068934041e+00 1.8818425450876453e+00 1.2866433887325690e+00 0 0 0
656 1 3.3946073515031925e+00 3.6170904417202121e+00 6.0428653150750267e-01 0 0 1
2159 1 1.0192098787041580e+01 3.3400053991537675e+00 4.0966723258247679e+00 0 0 0
717 1 2.4721641228254265e+00 4.1949328273505309e+00 7.5852984700733495e-01 0 0 1
1783 1 4.6291884116521560e+00 2.6345509113991528e-01 2.9252269893894107e+00 0 1 0
668 1 3.0573880767932362e+00 3.7226122013148681e+00 1.5814320822322179e+00 0 0 0
2201 1 8.7015160063036454e+00 3.8394146211033298e+00 1.2163169751319909e+00 0 1 0
1472 1 9.2656321407315936e+00 3.6504194719721665e+00 2.0895142644007287e+00 0 0 0
1019 1 4.8352374267374421e+00 3.3905858882422764e+00 1.0726602229184328e+00 0 0 0
1198 1 4.1304895812719149e+00 4.1311740255785123e+00 1.2730553493727148e+00 0 1 0
3627 2 4.8837982673183973e+00 4.3935209048526254e+00 8.9221608817809095e-01 0 0 1
1870 1 8.4242151930877824e+00 8.4425864327197975e-01 4.7833601445702822e-01 0 1 1
3503 2 8.0888328613372966e+00 1.8136027189338106e+00 3.8226209013898971e+00 -1 0 2
567 1 5.8789444578582675e+00 3.2340853012339523e+00 1.1973505773161697e+00 0 0 0
669 1 5.5249095228750340e+00 4.2019553176181645e+00 1.4906149249553120e+00 0 0 1
3865 2 6.2703516322684223e+00 3.9631666492536195e+00 1.0342611854183370e+00 0 0 0
1051 1 5.5664722090311223e+00 3.8018942793407557e+00 4.1191183598816072e-01 0 0 0
4262 2 3.5480623516593107e-01 2.2213681194581565e-02 4.2661898206478019e+00 1 0 1
3588 2 2.5726645972099185e+00 4.2724839746802612e+00 3.3966895765562439e+00 0 0 0
3771 2 9.2339674524009165e+00 3.0044929305463945e+00 3.7848238829916938e+00 0 1 -1
503 1 8.1580529279618510e+00 2.9674719141071231e+00 1.1004045372079774e+00 0 0 0
1506 1 7.0130339265295731e+00 3.1701825423754766e+00 1.1815482273841194e+00 0 0 0
1564 1 7.8653796474192896e+00 3.7004744336764159e+00 3.6823674199319234e-01 0 0 1
1572 1 7.7030565733557967e+00 3.9124742215745201e+00 1.6280868124640193e+00 0 0 1
1671 1 9.5712663460683363e+00 3.4103926735903478e+00 1.0362203001065169e+00 0 0 1
2141 1 8.0903831200285872e+00 4.7663288300557216e+00 9.8525336914603434e-01 0 0 1
474 1 1.0383509307480452e+00 1.1964689690870799e-01 3.7115352186852308e+00 0 1 0
94 1 1.8576154820237436e+00 4.1224590109437026e-01 3.1645381540829196e+00 0 0 0
2145 1 9.6069919395302499e+00 2.2413409318835940e+00 3.5512182838689448e+00 0 0 0
2965 1 7.9768722104218448e-01 3.8422590628164595e+00 3.1416732913361298e+00 1 0 0
520 1 1.1943215493943899e+00 1.4770782472232973e+00 1.7082730355772515e+00 0 0 0
4042 2 3.2245808874988615e+00 8.3762478479911140e-01 4.6561996970760040e+00 0 1 0
715 1 1.2170052053469083e+00 1.0804416988651424e+00 2.7179059755507984e+00 0 0 0
1050 1 5.9360239539091593e+00 2.6437312123439831e+00 3.6803040507888039e-02 0 0 0
1000 1 2.1680512185118430e+00 1.7294968008875071e+00 1.6502530334359415e+00 0 0 0
4214 2 1.6249178233717920e+00 1.7815900964009568e+00 2.4158535041857032e+00 1 0 0
817 1 1.9193096975751116e+00 6.4921822123498274e-01 2.0334556345014208e+00 0 1 0
159 1 2.8956021924857271e+00 1.1674876288311251e+00 2.0480620702458792e+00 0 0 0
992 1 2.2084147829412566e+00 1.3652771640275461e+00 2.9042772872700491e+00 0 0 0
966 1 2.8151252753467242e+00 5.5435047011523408e-01 2.8943166480962641e+00 0 0 0
1134 1 3.2693108964784532e+00 1.5745763562567219e+00 2.9849982306378586e+00 0 0 1
1040 1 4.0318792320735986e+00 1.4239433644858217e+00 1.9233597042093733e+00 0 0 0
1358 1 3.7325670291828605e+00 7.0790039802400118e-01 2.4663608776167587e+00 0 1 1
1621 1 7.7236843591057589e+00 4.0938578230753677e+00 3.3128219581015643e+00 0 0 0
3878 2 4.6127374615330785e+00 9.1649587112651765e-01 2.4151246080273636e+00 0 0 1
631 1 4.3041111232703084e+00 1.2736251451678102e+00 3.1611327637790727e+00 0 0 0
3756 2 6.0804600198565506e+00 4.7963962245779468e-01 1.7237983804197992e+00 0 0 1
1357 1 5.2390791346339718e+00 3.6725358171497430e-01 2.1107100608835769e+00 0 1 1
575 1 5.3989486759260110e+00 9.5360641229449872e-01 3.0421454465758067e+00 0 0 0
722 1 5.8190463033515716e+00 1.2264058878987401e+00 2.0040785988156804e+00 0 1 0
1147 1 6.2448526901474493e+00 5.3756227344672813e-01 2.6816483078301165e+00 0 0 1
1351 1 6.8982512505059459e+00 7.4022933918933298e-01 1.9185483256140969e+00 0 1 0
3775 2 7.0813279849295210e+00 4.0614536693532788e-01 2.8019646806832808e+00 0 1 0
636 1 1.9210247245891270e+00 4.7976108659443648e+00 2.2578776579546886e+00 0 0 1
1457 1 9.3474729709110917e+00 3.8536310957430358e+00 3.6925970840787805e+00 0 0 0
242 1 3.6023551769470044e+00 1.6837607616846031e-01 9.4498254387860126e-01 0 0 1
3492 2 1.2524790669436323e+00 2.4222387339728624e-01 2.5222275926231013e+00 0 0 0
21 1 2.2018005110888694e+00 2.2191998898865477e+00 1.2479373843841261e-02 0 0 0
2962 1 7.2860034451093947e-01 3.1045898778715988e+00 2.2209684624056849e+00 1 0 0
691 1 3.9570800254052720e+00 4.7947234481441523e+00 3.9608693474989041e+00 0 0 0
431 1 8.5350329684328963e-01 2.1182564639083026e+00 2.4984081703088172e+00 0 1 1
558 1 1.5271830620422606e+00 2.5231028678233183e+00 1.8278061381893407e+00 0 0 0
4242 2 9.7772920460348569e+00 6.5095836717527422e-01 1.6927676403088352e+00 0 0 1
83 1 1.7077407452856141e+00 3.1481988652228452e+00 2.6639522294584443e+00 0 0 0
166 1 1.6398760009264084e+00 2.2222975114872101e+00 3.1557359086030750e+00 0 0 0
1376 1 2.3958951865821874e+00 2.3718973121565732e+00 2.5400058719779812e+00 0 1 0
3606 2 2.4490332548896543e+00 3.2477273648502618e+00 2.2345974192279945e+00 0 0 0
2941 1 3.3874639510975872e+00 3.1803007277390241e+00 2.3702198674653174e+00 1 0 0
3608 2 3.2432860279312514e+00 2.4867614336996913e+00 2.8180015921231534e+00 0 0 0
3128 1 2.5039892703540994e+00 3.2923721433755926e+00 3.3147409875548162e+00 1 0 0
555 1 3.2773736449586757e+00 2.1075447487088117e+00 1.9956046246541579e+00 0 0 0
505 1 4.5439115125552476e+00 2.4121221866323568e+00 1.6683170065339774e+00 0 0 0
663 1 4.0988819999926296e+00 2.2856681136449892e+00 2.7612952130483994e+00 0 0 0
3686 2 4.2069473411426355e+00 2.9584656584438145e+00 2.2239609965679361e+00 0 1 0
1446 1 5.0238704992483125e+00 2.7953819670491868e+00 2.5815651726976965e+00 0 0 0
568 1 4.9545409111009917e+00 1.7652420855190696e+00 2.3910302719843588e+00 0 0 0
3703 2 5.1833026769352575e+00 3.0392271566415210e+00 1.7738572698758388e+00 0 0 0
3533 2 6.3054429544905313e+00 1.5383661773587687e+00 2.7041512866420274e+00 0 1 0
1462 1 5.6778211215982308e+00 2.3600739109165594e+00 1.8098911727326177e+00 0 0 0
1511 1 5.8373655509088334e+00 2.2048311936725629e+00 2.7564003672588249e+00 0 0 0
1561 1 6.5497198951189377e+00 2.9192821043216295e+00 2.0998539410155699e+00 0 0 0
2197 1 7.1006783291407514e+00 1.2441583350152381e+00 2.8486465936046526e+00 0 1 0
566 1 6.7034975203631770e+00 1.8139051056946560e+00 1.9596402648486859e+00 0 0 0
1437 1 7.5792913517081226e+00 2.5607488204003594e+00 1.9452915839613962e+00 0 0 0
2101 1 7.8108411943476543e+00 1.5403253948481319e+00 1.9093732349804686e+00 0 0 1
3946 2 7.6357998732927186e+00 1.9835626795546746e+00 2.6750263170354542e+00 0 1 0
1721 1 6.8744638783850416e+00 2.3844439250798577e+00 3.0610189240227323e+00 0 1 0
2421 1 7.9433767785999159e+00 2.5173657277007395e+00 3.2378916464621748e+00 0 0 0
2689 1 9.2411744925496553e+00 1.3277950275645554e+00 2.9062999928443443e+00 0 0 0
1488 1 6.3937655638602022e+00 4.5340205637921542e+00 1.9691735621519182e-01 0 0 0
1191 1 5.2630974661610539e+00 4.5276088615159109e+00 3.8742611719269520e+00 0 0 0
1696 1 7.7081289198934053e+00 4.0252869450778315e+00 4.4189269246293685e+00 0 0 0
3080 1 7.1261617670900024e-01 2.7660873619955386e+00 3.3749481288243626e+00 1 0 0
2037 1 7.0399967940874602e+00 4.5148524746760543e+00 2.6353622803415977e+00 0 0 0
615 1 1.9702211806617287e+00 3.6614588014762961e+00 1.6389010110904749e+00 0 0 1
3028 1 1.0938567371695784e+00 4.0226511352425556e+00 2.1309709154369707e+00 1 0 0
3610 2 1.1699009224124282e+00 4.5923198584385201e+00 2.8035049773685508e+00 0 0 0
1402 1 5.6565121590477387e+00 1.2627231666041364e-02 2.2051396990722133e-01 0 1 1
4133 2 1.0537919972195098e+01 4.7105717740973478e+00 4.2718606012970985e+00 0 0 0
1071 1 6.6097013947011716e+00 1.4325551596696084e+00 4.6779255783427223e+00 0 0 -1
1039 1 3.7925452261636949e+00 4.2504464351162801e+00 2.2806092184468181e+00 0 0 0
4238 2 2.3957996817412188e+00 4.4247350183894412e+00 1.5991844798385997e+00 1 0 0
3619 2 3.4780702973064708e+00 3.8734734977973191e+00 3.0237495101072964e+00 0 0 1
586 1 2.6734292910948358e+00 4.0811689227388959e+00 2.4625083753179009e+00 0 0 0
1022 1 3.3856907461690429e+00 4.7914621715275407e+00 3.1042409800900939e+00 0 0 -1
1682 1 7.2039628522314203e+00 3.2052432940600557e+00 3.7218508419862979e+00 0 0 0
1440 1 4.1948383706268366e+00 3.4570681889737518e+00 2.9467247891154882e+00 0 0 0
664 1 4.7332123653797860e+00 3.7922449053647496e+00 2.1504715292574961e+00 0 0 0
550 1 4.5210851479472529e+00 4.5857350851732592e+00 2.9662881191096973e+00 0 0 0
655 1 5.4538654001037408e+00 4.4593400844351327e+00 2.5472663382557066e+00 0 0 1
994 1 5.2686269396380165e+00 3.5795225685541388e+00 3.2766352040703497e+00 0 0 0
1428 1 6.6408345207626338e+00 3.9002089230404948e+00 1.8218298094160392e+00 0 0 0
1613 1 9.8847753732830661e+00 4.2303424793791118e+00 4.6454018630605196e+00 0 0 0
534 1 6.3825955778441559e+00 3.2978027533880727e+00 3.1181510649627522e+00 0 0 0
1271 1 5.7446406015508211e+00 3.4822908566506405e+00 2.3289381265833713e+00 0 1 0
878 1 7.8364616489119481e+00 2.2181326673356330e-01 4.4165319305203292e+00 0 1 0
3838 2 6.9089453097986677e+00 4.0159386808091551e+00 3.3884781361742626e+00 0 0 0
3127 1 3.1939418116421434e+00 3.8902717031481773e+00 3.8341468948377586e+00 1 0 0
1072 1 8.2642306857724890e+00 3.2271490315518858e+00 2.1681490074523402e+00 0 0 0
1535 1 7.2973469980604362e+00 3.4352995315683326e+00 2.6177775804339047e+00 0 0 0
3964 2 8.1249007399255344e+00 3.3015771045749656e+00 3.0670005781682166e+00 0 1 0
1858 1 7.9318831515511921e+00 1.2979077854736070e+00 4.4762311318893522e+00 0 1 0
1103 1 8.9411014661899522e+00 3.8427575916489848e-01 4.3884047127592414e+00 0 0 0
2076 1 8.2436860983084888e+00 1.4815288788919858e+00 3.0289496100620736e+00 0 0 1
3040 1 3.6006941561528469e+00 4.6332927554227901e+00 2.9913183892486850e-01 1 0 0
570 1 4.8405055999384222e-01 3.3898730182057063e-01 2.8155642681486865e+00 0 0 0
2108 1 7.0066694733797892e+00 3.2357239026354212e+00 4.7543771166839885e+00 0 0 0
599 1 3.0567951191452498e+00 4.4412462921413914e-01 3.9454766715314107e+00 0 0 0
3121 1 9.1490559012811623e+00 3.4250587120346707e+00 4.5511778351812637e+00 0 0 0
194 1 7.6322340412628042e-01 7.8306852327409637e-01 4.4489471916915564e+00 0 0 0
3855 2 8.1178181739067501e-01 9.7434330393329049e-01 3.6046460130130322e+00 0 0 0
3192 1 8.9862343270702927e-01 1.8092047096663670e+00 3.7062799620642428e+00 1 0 0
1538 1 8.6535849815008596e+00 3.6300635164108841e-01 3.3529197863034752e+00 0 0 0
1880 1 8.6741690381195351e+00 3.9889124834519110e+00 2.9483306179484812e+00 0 0 0
1584 1 1.6483739258415031e+00 1.1391568352715991e+00 3.8861501121503079e+00 0 0 0
3464 2 2.4431579960032739e+00 9.5697774202960195e-01 3.6108213368090714e+00 0 0 -1
652 1 2.5560477096181651e+00 1.5127068514460069e+00 4.2979882024303748e+00 0 0 0
1622 1 8.2900733228195076e+00 3.3498588099317312e+00 3.9147022717314175e+00 0 0 0
991 1 7.9176684848281464e+00 6.4303339948982219e-01 2.5367246594508104e+00 0 0 0
4264 2 3.5211972135406642e+00 8.2467846974058445e-01 3.3416448938690615e+00 1 0 1
1054 1 4.1449331341024260e+00 4.9515437913433985e-01 3.8995347522620607e+00 0 0 0
481 1 3.5047299300729975e+00 1.4767864647877231e+00 3.9814316990570253e+00 0 0 0
235 1 4.9659504995775876e+00 1.1108059979013338e+00 3.9935803810113488e+00 0 0 0
887 1 2.0393570427722483e+00 1.9828747781285597e-01 4.2841225268875656e+00 0 1 0
3856 2 5.8364977771870796e+00 4.2023423063685134e-01 3.5394877344603084e+00 0 0 0
2360 1 5.8349053349801832e+00 7.5040094973875870e-01 4.3515942893191379e+00 0 1 0
2064 1 1.1219326268660259e+00 2.9877999816699634e+00 1.9750046055550272e-01 1 0 1
3587 2 7.8653631768171692e+00 4.2174480797811196e+00 2.4344539615743748e+00 0 0 0
1950 1 7.7530622417047335e+00 7.6168321995480937e-01 3.5551288523563409e+00 0 0 0
4029 2 7.2056446116737325e+00 8.3956479785203064e-01 4.2919525872202513e+00 0 1 0
580 1 6.7190279358481027e+00 4.6431091613891118e-01 3.6314816123911018e+00 0 0 0
2132 1 9.6311215025357750e+00 7.1624386377295057e-01 3.7040035228000256e+00 0 0 0
4129 2 9.5789816511774575e+00 3.9052307180003445e+00 2.8343867773944091e+00 1 0 1
1425 1 8.6908727667561276e+00 2.3602304773408518e+00 4.1287703949768702e+00 0 1 0
17 1 7.7956114406746968e-01 5.0339960241188675e-01 1.8179800005984463e+00 0 0 0
1242 1 4.7931515754780918e+00 1.4406743376318440e+00 3.1266874843653747e-01 0 1 0
906 1 8.4911423347686075e+00 2.1509469710225892e+00 2.3807374911700072e+00 0 1 0
1607 1 9.0831013383071930e+00 4.7166273573658763e+00 5.0282557999517619e-01 0 0 1
3772 2 2.1283123913083291e+00 2.6614289499160254e-01 2.7261399799131592e-01 0 1 1
3482 2 8.4696412278307029e+00 4.3525058839412845e+00 9.8799034793440252e-02 0 0 1
2084 1 8.9638421716346866e+00 3.5965477904546352e+00 1.9338231890166513e-01 0 0 1
3480 2 1.0474886735048790e+00 2.5813714847918767e+00 4.1660297932712469e+00 0 0 0
700 1 1.0473772970644690e+00 3.5374240050190267e+00 4.5388700431680666e+00 0 0 0
288 1 1.5661671239441259e+00 3.1833398924310923e+00 3.7422467184194956e+00 0 1 0
4208 2 1.8776449811821441e+00 3.0789780960618822e+00 4.5931368786995845e+00 1 0 0
543 1 1.8396784082638300e+00 2.2634209167475374e+00 4.1487308849506883e+00 0 0 0
1165 1 2.6999806111568212e+00 2.2021949738383482e+00 3.5166808585903717e+00 0 0 0
802 1 2.6886933081250222e+00 3.0077199199993734e+00 4.3104281232352681e+00 0 1 0
572 1 3.4798338198548313e+00 2.9054158138188937e+00 3.5033929323768476e+00 0 0 0
1167 1 3.4774282745430369e+00 2.3804390935613591e+00 4.4271994434988402e+00 0 0 0
548 1 5.8470411158977651e+00 2.8711665848882597e+00 4.7987929854690483e+00 0 0 0
3719 2 3.6499365828703940e+00 3.2645006856435517e+00 4.2869015032506743e+00 0 0 -1
4119 2 4.0305454083529382e+00 2.0364868942798844e+00 3.6455526447242712e+00 0 0 0
1007 1 4.4333953145182754e+00 2.0074522982294365e+00 4.3424328161345844e+00 0 0 0
2164 1 4.4966305643544651e+00 2.7859319170741648e+00 3.6654343600085695e+00 0 0 1
3884 2 5.0655362708747642e+00 2.6185997268355607e+00 4.3954271535613900e+00 0 0 1
1062 1 5.0536226363334480e+00 1.9733470289447821e+00 3.4620169909249849e+00 0 0 0
1194 1 6.1374718364361787e+00 1.4561283154931557e+00 3.5954938171194444e+00 0 1 0
814 1 5.6034058381754690e+00 1.9225934316082676e+00 4.3792329974330810e+00 0 1 0
1081 1 5.7021315764378580e+00 2.7261049479288344e+00 3.6851376682987538e+00 0 0 1
860 1 6.5605750028450647e+00 2.4486617115950056e+00 4.0786938878217907e+00 0 1 1
3460 2 8.7928869467507518e+00 2.0307147806790300e+00 3.3254098182538461e+00 -1 0 0
2250 1 8.7975210720891894e+00 1.3322778679105522e+00 3.8519183617414305e+00 0 1 0
2098 1 6.5385167767603987e+00 3.4645297229349978e+00 3.6154622110995938e-01 0 0 1
1573 1 7.2303234968277161e+00 1.6189681874198212e+00 3.8075428638481985e+00 0 0 0
537 1 7.6058559154095589e+00 2.3667144199374417e+00 4.3308193288139938e+00 0 0 0
508 1 6.1880058533727533e+00 4.4468388610520639e+00 3.3093644284426360e+00 0 0 0
1117 1 4.5104105954403177e+00 3.9510873895189316e+00 2.4225701332056912e-01 0 0 1
2063 1 9.9405966957616823e+00 3.1007389033816621e+00 2.9700097121999010e+00 0 0 0
124 1 5.1267056935690043e+00 3.5114359484423932e+00 4.3577880422212765e+00 0 0 0
177 1 1.8126124360441125e+00 4.0599338584695399e+00 3.0757168152938932e+00 0 0 0
1505 1 4.2540385748089138e+00 3.8243317911961419e+00 3.8697828330553188e+00 0 0 0
232 1 2.0753718035607074e+00 3.9788561692820688e+00 4.2253675146124596e+00 0 0 0
1491 1 3.7820869096655105e+00 1.7303931938515191e-01 4.8058746701519413e+00 0 0 -1
4148 2 1.2815743299434466e+00 4.0424381450793954e+00 3.8779916546696063e+00 1 0 0
3590 2 6.0865155066741083e+00 4.6626600146860779e+00 4.1114610974149057e+00 0 0 -1
1519 1 9.1465587413710363e+00 4.5275379447744246e-01 2.3013396266935175e+00 0 0 0
1689 1 9.6034870588627399e+00 2.4413292645149287e+00 4.6365089404998390e+00 0 0 0
964 1 1.0069673774128205e+01 3.0673782254342181e+00 1.8764375711727785e+00 0 0 0
955 1 6.9845214903645756e+00 4.6715164622288299e+00 3.8869121243267521e+00 0 0 0
767 1 7.4198708048161688e+00 1.4795627414039733e-01 1.1310242704846969e+00 0 1 0
1029 1 6.3658729436516355e+00 8.4430587093602893e-01 8.2600280647583929e-02 0 0 0
1137 1 9.3139380719013669e+00 4.7830040656850663e+00 2.7931613123708261e+00 0 0 1
733 1 4.9221723495965160e+00 3.0214534575760692e+00 9.4008415926611785e-02 0 1 0
3688 2 2.8476453658220269e+00 4.0982171666708673e+00 4.6347521876090489e+00 0 1 0
1458 1 6.4818034563073059e+00 1.3040812399963486e-01 9.1846928396073702e-01 0 0 0
386 1 5.1295275259862940e+00 7.7217916749137000e-02 3.8522063782377582e+00 0 1 0
1474 1 1.0313549511074696e+01 4.3215374892723064e+00 3.2886478614058356e+00 0 0 0
4296 2 7.4985339010691776e+00 4.8194019546678746e+00 4.5914349810684376e+00 1 0 0
1562 1 6.4142900636389450e+00 4.8167173702743593e+00 1.2800733299035689e+00 0 0 1
559 1 2.6788904788623120e+00 4.8050815071397155e+00 4.0421261847889935e+00 0 0 0
1090 1 4.7709103640052017e+00 4.6671472748402620e-01 4.7845423324001377e+00 0 0 0
2960 1 4.7369034841019003e-01 2.4115344439217430e+00 1.4665272702976329e+00 1 0 0
2100 1 1.0174089892933001e+01 3.7478938096872567e+00 6.0991404336730461e+00 0 0 0
3761 2 7.2345251738443963e+00 4.6559067408860475e+00 6.9481978155595616e+00 0 0 0
617 1 6.1213148335374701e+00 4.4737981175466626e+00 8.0160974353040828e+00 0 0 0
1171 1 9.0004190051983830e+00 2.8904951936904228e+00 5.4618775510029556e+00 0 0 0
1069 1 3.1097387154605252e+00 1.5673404771741475e+00 5.1808374433272615e+00 0 0 0
4078 2 8.9579173243567922e+00 1.1574196220561050e+00 5.8465307074461279e+00 0 1 0
3545 2 9.7136047551353299e-01 1.3138067195893122e+00 5.4086558279721473e+00 0 1 0
56 1 3.6610058317907512e+00 1.7989910454959483e+00 9.5255838185056909e+00 0 0 -1
4220 2 8.5427165139794834e+00 1.2285203529846613e+00 7.3746691724406324e+00 0 0 -1
3728 2 1.0044878532779808e+01 3.0302708283017550e+00 7.8662975036484593e+00 0 0 0
1628 1 8.5494521739053067e+00 4.1459376761646434e+00 8.0561724353728899e+00 0 0 0
706 1 1.6788459782817848e+00 1.0785031116396901e+00 5.9069322328512142e+00 0 0 0
3140 1 1.0942988459729921e+00 4.7593060491128423e+00 9.3879961247843600e+00 1 0 0
3513 2 2.3404571039515685e+00 1.6167979908831205e+00 5.6118198683877285e+00 0 0 0
842 1 2.4192489988290347e+00 7.9080055269604743e-01 5.0717149814635798e+00 0 1 0
913 1 2.7434329898467831e+00 1.2742172248928281e+00 6.2430234588639442e+00 0 1 0
517 1 5.2841787806803122e+00 4.5670338516950650e+00 9.3555078262172184e+00 0 0 0
1904 1 8.1466045689022568e+00 1.4121002421272468e+00 5.7295100887564034e+00 0 1 0
3611 2 4.1766464232929073e+00 5.2551347007575977e-01 5.4569095005168355e+00 0 0 1
3752 2 3.7084058320194311e+00 1.3389312572626453e+00 5.8004002661996203e+00 0 0 0
526 1 3.3308308109978575e+00 6.6731883220825927e-01 5.5709386593542103e+00 0 0 -1
1080 1 4.0647442776927933e+00 7.7121787866270231e-01 6.3143899796122316e+00 0 0 0
1514 1 6.6917227658514467e+00 2.8568900520759297e+00 9.0062335622117686e+00 0 0 -1
1128 1 4.6942933886494922e+00 1.3354011457139106e+00 5.7047998419300896e+00 0 0 1
1557 1 9.5783881685684520e+00 3.8304529957533138e+00 8.1752749052725999e+00 0 0 0
2053 1 9.0234612883874785e+00 1.8851934665974150e+00 6.3053990296552618e+00 0 0 0
1683 1 5.7560837892503027e+00 6.2786560357585741e-01 6.1730507926120870e+00 0 0 0
1199 1 5.6886299889773024e+00 1.1393922974275299e+00 5.2404450707476524e+00 0 1 0
3749 2 8.4457061365980852e+00 3.3244885733453184e+00 8.2769611439394861e+00 0 0 0
4122 2 6.4439380159162774e+00 6.8911606856667740e-01 5.2892458455031441e+00 0 0 0
1349 1 6.7391217898278093e+00 2.9690701582227519e-01 5.9950303871665378e+00 0 1 0
889 1 7.4210775067029271e+00 7.2142375176125084e-01 5.2760395489746266e+00 0 1 0
1021 1 8.2950142803977513e+00 2.8155486035108863e+00 9.4167482536972269e+00 0 0 0
1654 1 7.3895238282253990e+00 1.1070858197350988e+00 6.5039807632671094e+00 0 0 0
1624 1 6.9685586323140276e+00 4.5927501107267164e+00 8.6608590509273284e+00 0 0 0
3814 2 1.1896730771543786e+00 3.8357081815247351e-01 6.2243613347421540e+00 0 1 0
4297 2 3.5918848785366873e+00 8.2340045081304061e-02 8.1302432364495409e+00 1 1 1
1099 1 3.6559571826209374e+00 4.7705131319209437e+00 6.6556755377717476e+00 0 0 0
1681 1 9.6881678259269126e+00 1.7188525429501142e+00 5.4780156995828131e+00 0 0 0
1566 1 6.8423971962014285e+00 3.5650175803390756e+00 8.2898243866254369e+00 0 0 0
110 1 7.0216989817251052e-01 2.0958489194976262e+00 5.7215589886033804e+00 0 0 -1
4175 2 9.6644368964424299e+00 7.5729167137507569e-01 7.8646846004976139e+00 0 1 0
695 1 1.7601152833815106e+00 2.1011155602684521e+00 5.9856508506936672e+00 0 0 0
602 1 1.3340658353768469e+00 2.6479975530931616e+00 5.0397144565882543e+00 0 0 0
2586 1 1.1468813098595101e+00 2.8525310406217583e+00 6.2951539460633104e+00 1 0 0
4302 2 1.9872986296402786e+00 3.0366978211604128e+00 6.1664390090174432e+00 1 1 0
1180 1 2.8914053422311139e+00 2.2269792545192875e+00 5.9828102505166036e+00 0 0 0
1482 1 3.3506875765971964e+00 3.0945629372129693e+00 5.2300345842594469e+00 0 0 0
370 1 2.7530299559488083e+00 3.3736990458448446e-01 8.1154926972451680e+00 0 1 0
675 1 2.8091764989101060e+00 3.2606957747847529e+00 6.2567650453295798e+00 0 0 0
676 1 2.3060282150852451e+00 3.4475233443940727e+00 5.2430385325622888e+00 0 0 0
1114 1 3.9198227739800853e+00 2.0886449972497010e+00 5.3970473390696583e+00 0 0 0
1187 1 4.7373780907518324e+00 2.1627410450035369e+00 6.2952404340650832e+00 0 0 0
659 1 3.6936133732742245e+00 2.7912186076940744e+00 6.1972921350576167e+00 0 0 0
3713 2 4.4226360006173540e+00 2.8060865688329484e+00 5.8168279262514693e+00 0 0 0
698 1 3.7297396480886675e+00 1.8515772286626992e+00 6.4567803781384896e+00 0 0 0
1177 1 5.1388229408316839e+00 2.2405601231588586e+00 5.3493956031084124e+00 0 0 0
1853 1 5.6214403112540925e+00 1.6481336590675773e+00 6.2531576943649858e+00 0 1 1
3123 1 5.6501306572408279e+00 2.6952773266029331e+00 6.0545783722481579e+00 1 0 0
3577 2 6.3683748196539618e+00 2.1950579897855218e+00 6.3125802032777036e+00 0 0 -1
1676 1 6.3519202059910231e+00 2.2858666895302129e+00 5.4033197218546052e+00 0 0 0
1647 1 6.5701284101559310e+00 1.4128953913532041e+00 5.8025826743925428e+00 0 0 0
3707 2 7.0001474684261318e+00 1.2497919357039518e+00 9.1618388939370146e+00 0 0 -1
592 1 7.5732074350221790e-01 5.9827234035438948e-01 8.6848557103903516e+00 0 0 -1
1153 1 7.2088054358012030e+00 2.1485857971245585e+00 6.3859459701654053e+00 0 0 0
4284 2 9.4248061259019202e+00 2.9142937768099803e-01 7.0282118106843203e+00 0 1 0
998 1 7.9453151073183248e+00 4.3405236374589737e+00 6.6166910512306325e+00 0 0 0
2123 1 9.7266466294839820e+00 6.3934284747961279e-01 6.2747708926731320e+00 0 0 0
2610 1 9.6135363532772686e+00 2.3786843900753776e+00 8.2834783060909363e+00 0 0 0
1688 1 9.2491417110278480e+00 4.0040719111057861e+00 5.4456013413595068e+00 0 0 0
1079 1 1.3084274620369751e+00 3.5712487479325836e+00 5.5552861316474083e+00 0 0 0
223 1 1.0836236630920704e+00 4.5516203710377052e+00 5.8799058266676054e+00 0 0 0
1133 1 2.0674413114834556e+00 3.9961969656097054e+00 6.0672105396586486e+00 0 0 0
4130 2 8.5551044658590989e+00 4.5767657017287684e+00 7.2969395881123864e+00 0 0 -1
1115 1 8.4577154173045557e+00 3.6915469375951409e+00 6.0071997238306638e+00 0 0 0
601 1 3.2223397436684680e+00 4.2114632020162235e+00 5.8311637520814852e+00 0 0 0
1093 1 4.1358661912596437e+00 3.7220152660649513e+00 5.8531308005184606e+00 0 0 0
1814 1 9.5402039791379583e+00 4.8006391749111987e-01 8.6684900461844894e+00 0 1 0
2088 1 5.1408543637830366e+00 3.5748359549348709e+00 5.3986313991133921e+00 0 0 0
127 1 4.8325304347343856e+00 3.2231602235873136e+00 6.5129673002037407e+00 0 0 0
784 1 7.8926834219547235e+00 7.2222157113474850e-01 7.3803137881118897e+00 0 1 0
1085 1 6.2682199395053573e+00 3.6067171205161421e+00 5.4724567273875717e+00 0 0 0
3016 1 5.7423887793009554e+00 3.8786869274767986e+00 6.3249965673123958e+00 1 0 0
1184 1 6.8640456629389943e+00 3.9919070180021361e+00 6.3200605949219018e+00 0 0 0
1030 1 7.1960647478153490e+00 3.0120654904541206e+00 5.7831392619046778e+00 0 0 0