LAMMPS data file via write_data, version 12 Dec 2018, timestep = 318120

4320 atoms
2 atom types

0.0000000000000000e+00 1.9309999999999999e+01 xlo xhi
0.0000000000000000e+00 1.9309999999999999e+01 ylo yhi
0.0000000000000000e+00 9.6549999999999994e+00 zlo zhi
4.6537099999999985e+00 0.0000000000000000e+00 0.0000000000000000e+00 xy xz yz

Masses

1 1
2 1

Atoms # atomic

4263 2 5.8747391286250288e+00 4.4255564523627253e+00 2.2749133206675518e+00 1 0 0
1783 1 4.0580080491142434e+00 8.6610043064958786e-02 3.1226223958797426e+00 0 1 0
1433 1 9.3084423910187688e+00 4.1212214896116963e+00 1.2646761645469169e+00 0 0 0
2159 1 1.0050654575592265e+01 3.3740760449575888e+00 4.0222285910997320e+00 0 0 0
3622 2 7.3176975140005895e-01 1.5154657038276307e+00 6.8879659168699203e-01 0 0 1
1502 1 8.4591542963849751e+00 4.3563745297730492e+00 1.9445662077325134e+00 0 0 0
474 1 5.7868945607749012e-01 2.3458111237892693e-01 3.7620108482777286e+00 0 1 0
3205 1 1.1075405829702831e+00 2.2061649029245167e+00 9.6124242692070516e-01 1 1 0
1979 1 9.3077318780253009e+00 2.2702115964557144e+00 2.3095067845840447e+00 0 0 0
851 1 1.6826959415408489e+00 1.3824005846847249e+00 5.9581194017792705e-01 0 1 0
253 1 2.1739660262800040e+00 6.5684522288991920e-01 1.2442688426767070e+00 0 1 0
1190 1 2.6142062763355840e+00 1.6367992549862460e+00 1.1789713997361904e+00 0 0 1
3918 2 2.4764615316524985e+00 1.7454879019802811e+00 3.5115835599719913e-01 0 1 0
30 1 5.9419455680679238e+00 3.7079273743072205e+00 4.0631733648573061e+00 0 0 0
1127 1 2.5610039987079447e+00 8.5110553285839841e-01 2.4809435185207945e-01 0 0 1
1554 1 3.5708273758817968e+00 1.1555714697535522e+00 9.9066213136543357e-01 0 0 1
4116 2 3.1421276281867754e+00 8.1253801042667939e-01 1.6918590627045020e+00 1 0 -1
95 1 3.9627068731715203e+00 3.8941430759320722e-01 1.8075371384874908e+00 0 0 0
2513 1 8.8044616100734441e+00 4.3103394126721239e-01 1.0179633916815594e+00 0 0 0
1441 1 9.6997121416862235e+00 1.8131980940745409e+00 6.9002005665784488e-02 0 0 0
870 1 4.4914678615502179e+00 1.5228726217721775e+00 1.3630554538336210e+00 0 1 1
1798 1 5.1412305213318437e+00 7.1010723785784347e-01 1.1213606647119418e+00 0 1 0
1022 1 2.8721268987032955e+00 4.6680114484466220e+00 3.0758018236945328e+00 0 0 -1
1711 1 8.5741681482276668e+00 2.4555285472985378e+00 4.2894659391912909e-01 0 1 0
1615 1 6.1336270889774172e+00 1.1324931657569395e+00 1.0938737811793924e+00 0 0 1
1678 1 8.6453851305092471e+00 2.7802712955403068e+00 2.9555503296129149e+00 0 0 1
987 1 5.4549362226683655e+00 1.5009224931294793e+00 3.8818284534944919e-01 0 0 0
3482 2 8.2453971090798177e+00 4.2244267067090604e+00 6.5038693316841423e-02 0 0 1
3793 2 6.6262000507200032e+00 1.0467278468108530e-01 3.7086830372443902e-01 0 1 0
3468 2 7.0056409494230731e+00 9.2957310604246401e-01 1.3657946593838026e+00 -1 0 1
1906 1 6.1649552623872941e+00 3.2237558555002377e-02 4.7638128244539981e+00 0 1 0
1470 1 8.6509887293174241e+00 2.5662435726141011e+00 1.4825871758576392e+00 0 0 0
3635 2 9.1737860514761138e+00 2.5870331577132481e-02 4.1506068820950359e+00 0 0 1
1488 1 6.3245417110708360e+00 4.4608898892194135e+00 1.2650378059630790e-01 0 0 0
115 1 1.1108424920296305e+00 6.6782251347574151e-01 1.2518506252490995e+00 0 0 0
970 1 5.4505230873707688e+00 4.3575123608343720e+00 4.7874808363835859e+00 0 0 0
975 1 8.5838221511516579e+00 1.1164306988008292e+00 4.8249932178364716e+00 0 0 0
1689 1 9.4059355277019936e+00 2.2458201851517883e+00 4.6536898611842243e+00 0 0 0
1160 1 7.7612166729693461e+00 6.6776342320482540e-01 1.4533736028731872e+00 0 0 0
3599 2 1.2840164234378906e+00 3.7255781819369358e+00 7.4512417329596337e-01 0 0 0
622 1 1.7611940891754552e+00 3.0418020243291277e+00 7.5407943549389200e-01 0 0 1
3750 2 1.9419731410926235e+00 2.2135837417394835e+00 9.4789730134277628e-01 0 0 1
34 1 2.8554349773409138e+00 2.5713276010260793e+00 6.2940343199041626e-01 0 0 0
1065 1 2.3245116254841172e+00 2.7846427137701832e+00 1.5712174859689438e+00 0 0 0
968 1 3.8344187254991167e+00 2.2679608786316350e+00 6.9024584896019536e-01 0 0 1
3708 2 3.6321698128057429e+00 1.9391352271647431e+00 1.4238240834493419e+00 0 0 0
1166 1 3.4279651378530760e+00 3.0045392630807459e+00 1.2951881937004821e+00 0 0 1
3768 2 3.8546684294992946e+00 3.2555130126231604e+00 5.8137687326076759e-01 0 1 0
3676 2 8.2246978109609206e+00 1.1869234157569959e+00 2.0446444330456672e+00 0 1 1
3757 2 5.3544469946603526e+00 1.6196567107516484e+00 1.2810689027494333e+00 0 0 1
1764 1 4.9436721180531169e+00 2.2763009246963328e+00 8.4563503522538042e-01 0 1 0
1617 1 6.0452933563054287e+00 2.2171173975545857e+00 1.0052687109283038e+00 0 0 1
2174 1 4.2280484025233811e+00 3.3384850556971951e-01 6.9747160557265997e-01 0 1 0
1499 1 7.0347723465485270e+00 1.8385590221688319e+00 1.0184911028409485e+00 0 0 1
1544 1 8.8089703390482939e+00 1.4367617868546823e+00 4.1829675665837213e-01 0 0 0
1946 1 9.9682053741418937e+00 3.9128481048097954e+00 2.2124234987540077e+00 0 0 0
1965 1 9.0147452977214879e+00 1.3539273692453142e+00 1.6918147023728483e+00 0 0 0
1145 1 8.4088689897364155e+00 4.1675590639258857e+00 4.2275871192640295e+00 0 0 0
767 1 6.9118524840189508e+00 8.1837617787618430e-02 1.2060641595687611e+00 0 1 0
878 1 7.1186428904846881e+00 4.1678800489498805e-02 4.3564595629324501e+00 0 1 0
2064 1 8.0821680073124047e-01 3.0236622988951871e+00 9.8838666253960719e-02 1 0 1
3441 1 6.8028037819324139e-01 2.3001056882795849e-02 4.7588357263887584e+00 1 1 0
3590 2 5.8357034194122104e+00 4.6094654414415119e+00 4.0538733148740249e+00 0 0 -1
1513 1 6.8989730254594939e+00 4.1384968147562278e+00 8.8175656858418205e-01 0 0 0
952 1 8.1022390040216123e+00 1.6757012270681118e+00 1.1586371688787114e+00 0 0 0
656 1 3.0890000816678937e+00 3.6916078944226340e+00 4.5086722230460513e-01 0 0 1
574 1 3.3956066263948461e+00 4.0772867426927233e+00 4.8127039026966472e+00 0 0 0
717 1 2.2089262080006233e+00 4.1164947198382400e+00 6.8739561648661918e-01 0 0 1
242 1 3.1274804580285558e+00 1.5631327041947937e-01 1.1081634327241272e+00 0 0 1
668 1 2.7535233903388270e+00 3.7596916300463166e+00 1.5162604059216300e+00 0 0 0
2201 1 8.3720017967454723e+00 3.6343593696813170e+00 1.1474442859053866e+00 0 1 0
1472 1 9.0473290466385254e+00 3.3490067038443145e+00 2.0969271052839269e+00 0 0 0
1019 1 4.6183347662316434e+00 3.2607898809917044e+00 1.0268625875740534e+00 0 0 0
1198 1 3.8489585791456289e+00 4.0574664515018419e+00 1.2717077094518268e+00 0 1 0
3627 2 4.6445203007787494e+00 4.2198027276470675e+00 9.3953880793938704e-01 0 0 1
1870 1 7.9907390743622804e+00 7.1748311118474761e-01 4.0399563717463455e-01 0 1 1
3503 2 7.7368358571689226e+00 1.6128620433725385e+00 3.7104051524219730e+00 -1 0 2
567 1 5.6376487060322322e+00 3.1645635148754732e+00 1.1842878289084613e+00 0 0 0
669 1 5.2452131159935469e+00 4.2207879708683960e+00 1.5091848619364061e+00 0 0 1
3865 2 5.9930841561542074e+00 4.1876625673853276e+00 9.6042648785251805e-01 0 0 0
1051 1 5.3408447163167008e+00 3.9181645385245036e+00 3.7994344716329498e-01 0 0 0
2996 1 3.0077964095032197e+00 4.7681974149972737e+00 1.2070088007977966e+00 1 0 0
3588 2 2.0308713668961369e+00 4.0959064644204535e+00 3.4893364386877082e+00 0 0 0
3771 2 9.4020392801748223e+00 2.7846190420301977e+00 3.9162053024863899e+00 0 1 -1
503 1 7.7583256069757836e+00 2.6805658353687791e+00 1.0393504046683226e+00 0 0 0
1506 1 6.7860517191263376e+00 3.0628308294830893e+00 1.1146880864862843e+00 0 0 0
1564 1 7.6720659722715627e+00 3.5701484158068353e+00 3.4790803820229937e-01 0 0 1
1572 1 7.4396465738332180e+00 3.7321027765637789e+00 1.6410497060882714e+00 0 0 1
1671 1 9.2870951085430029e+00 3.1125417825121948e+00 8.9209703321750455e-01 0 0 1
21 1 1.8842979098320909e+00 2.2766981887447675e+00 1.7247207476506123e-02 0 0 0
2006 1 1.0215775286651171e+01 4.0340147308292211e+00 5.7198835809028048e-01 0 0 0
94 1 1.4395764167926859e+00 5.0794420734994128e-01 3.2894151741039721e+00 0 0 0
2145 1 9.3737424898865456e+00 2.0565141589018028e+00 3.4092485561262778e+00 0 0 0
2468 1 9.5367550095771936e+00 2.0403417612790409e+00 1.0899587460774340e+00 0 0 0
520 1 6.4457139700472899e-01 1.5089766811398100e+00 1.7641965614200608e+00 0 0 0
1122 1 9.3666278798925813e+00 4.8607001285439017e-01 3.9567769569348848e-02 0 0 0
715 1 7.7205459390206710e-01 1.3259813743840050e+00 2.8641119466029750e+00 0 0 0
513 1 4.3806766312432597e+00 4.5228523277213402e+00 4.6178259468185416e+00 0 0 0
1000 1 1.6783532667136893e+00 1.7187704879412065e+00 1.6430152335635151e+00 0 0 0
4214 2 1.2954445049545136e+00 1.9127414800394702e+00 2.3662134288681682e+00 1 0 0
817 1 1.4909636331421359e+00 8.2803717065521465e-01 2.2992453227415299e+00 0 1 0
159 1 2.5322119139334731e+00 1.2189569840968439e+00 2.0891968036124684e+00 0 0 0
992 1 1.8201260462620186e+00 1.5667367042903300e+00 3.0011223918584968e+00 0 0 0
966 1 2.3691293843970920e+00 4.9107675081834701e-01 2.8870689595141195e+00 0 0 0
1134 1 2.8980999612521749e+00 1.6716902347060087e+00 2.8892803183031921e+00 0 0 1
1040 1 3.6935746914600367e+00 1.4061361883848973e+00 2.1528809750813767e+00 0 0 0
1358 1 3.2917472383213346e+00 5.6884473655593071e-01 2.5669603958899820e+00 0 1 1
1621 1 7.5548703602855944e+00 4.0743616292504132e+00 3.3804464751795016e+00 0 0 0
3878 2 4.2282333756046855e+00 7.9175999583708356e-01 2.5536212442285380e+00 0 0 1
631 1 3.9176225531299940e+00 1.2852777532170241e+00 3.2159210262724356e+00 0 0 0
3756 2 5.7634438210916477e+00 5.1467336358788063e-01 1.6500898349180080e+00 0 0 1
1357 1 4.9587077609799683e+00 4.1882404972899362e-01 2.1308441162527072e+00 0 1 1
575 1 4.9328683008137126e+00 9.5299850499557692e-01 3.1016906280596208e+00 0 0 0
722 1 5.4652966389216138e+00 1.2471413712180461e+00 1.9975259453888952e+00 0 1 0
1147 1 5.8081136580355448e+00 4.9557531109728942e-01 2.6744467613420038e+00 0 0 1
1351 1 6.5259399973820731e+00 7.1507049717705418e-01 2.0157546671540025e+00 0 1 0
3775 2 6.6492417058618560e+00 2.7501270789025473e-01 2.8068939869853091e+00 0 1 0
2538 1 9.7676414247439283e+00 1.0422099676710437e+00 8.4139765496012320e-01 0 0 0
1457 1 9.1138406034834993e+00 3.6035396337382042e+00 3.6770357533215181e+00 0 0 0
955 1 6.7191109790704679e+00 4.5556782999717740e+00 3.9098770497104840e+00 0 0 0
3492 2 8.3583854848225847e-01 2.5967296427129521e-01 2.6849851945189158e+00 0 0 0
1538 1 8.1488940725971517e+00 3.0119799275269910e-01 3.2352198442450817e+00 0 0 0
137 1 9.7023932686289083e-01 7.3613750291501567e-01 1.2331001024848483e-01 0 0 1
3847 2 8.4499765210247499e+00 4.5810444488748079e+00 3.4810623270927077e+00 0 0 0
1098 1 7.8404263082750258e+00 1.7510308708030444e+00 1.0767390651448766e-01 0 0 1
558 1 1.2556506092399506e+00 2.6852298863434108e+00 1.9107197493088124e+00 0 0 0
548 1 5.4941400499241233e+00 2.9831700970066386e+00 4.6328933305445927e+00 0 0 0
83 1 1.2705638017899212e+00 3.7628951537179947e+00 2.6308689141685129e+00 0 0 0
166 1 1.2230718561543132e+00 2.6605618984153914e+00 3.0895862120600786e+00 0 0 0
1376 1 2.0874067016065565e+00 2.4543598383084451e+00 2.5213665366138653e+00 0 1 0
3606 2 1.9372871893662036e+00 3.2723063231601266e+00 2.2341835520902187e+00 0 0 0
2941 1 2.9093068056396230e+00 3.1917123589918726e+00 2.3393798108548625e+00 1 0 0
3608 2 2.8614136830629864e+00 2.5155601955230482e+00 2.8718635221396642e+00 0 0 0
3128 1 2.0975904740119620e+00 3.3350562437323474e+00 3.1205920398965192e+00 1 0 0
555 1 3.0306213606578711e+00 2.1865499789661120e+00 1.9934576296528423e+00 0 0 0
505 1 4.2337848893907601e+00 2.5028699332831157e+00 1.7101516698076824e+00 0 0 0
663 1 3.8025065146234427e+00 2.2889904559324910e+00 2.7896169820624874e+00 0 0 0
3686 2 3.6010982836803596e+00 3.5103393345294416e+00 1.9154432540476507e+00 0 1 0
1446 1 4.7128762569819500e+00 2.8139059507911508e+00 2.5990533076383948e+00 0 0 0
568 1 4.6706770886153937e+00 1.7180807721066351e+00 2.3830634562284843e+00 0 0 0
3703 2 4.9461073953388128e+00 3.0283087586162991e+00 1.7841054797655098e+00 0 0 0
3533 2 5.9063484038764784e+00 1.4000415930309824e+00 2.7858386302958240e+00 0 1 0
1462 1 5.3670977444639920e+00 2.2517777603136566e+00 1.9059775937264336e+00 0 0 0
1511 1 5.6795381218321124e+00 2.2619158064417118e+00 2.8547135085249153e+00 0 0 0
1561 1 6.1792770576031053e+00 2.8372063856218532e+00 2.0682946958642212e+00 0 0 0
2197 1 6.7720129250499284e+00 1.2955561913919806e+00 2.8473653412674693e+00 0 1 0
566 1 6.3788727040221573e+00 1.8239003108949978e+00 2.0084996185832651e+00 0 0 0
1437 1 7.1786171818657758e+00 2.5621129603695012e+00 1.9016920781611610e+00 0 0 0
2101 1 7.3820785965123532e+00 1.5099327909352100e+00 1.9173711244697293e+00 0 0 1
3946 2 7.2970870973008530e+00 2.0076976888999014e+00 2.5773173347474021e+00 0 1 0
1721 1 6.7062250130419194e+00 2.4174091744004609e+00 2.9482079254527922e+00 0 1 0
2421 1 7.6503042256138301e+00 2.3292128351493444e+00 3.2810948737750825e+00 0 0 0
2689 1 8.9268329806718452e+00 1.3804719797559442e+00 2.7363377210139905e+00 0 0 0
1117 1 4.2593411511199486e+00 3.9417700129752640e+00 2.2630204465882145e-01 0 0 1
1191 1 4.9542422464591906e+00 4.4996060641116458e+00 3.7335025017964760e+00 0 0 0
1696 1 7.3648074317962191e+00 3.8646295779170767e+00 4.4455580863892550e+00 0 0 0
1029 1 5.9481545114742875e+00 6.1111687365943790e-01 1.2398799392455319e-01 0 0 0
2037 1 6.8592019787886125e+00 4.4377346296793982e+00 2.6582058518530420e+00 0 0 0
615 1 1.6498759958002327e+00 3.7548208430718142e+00 1.5978671814063063e+00 0 0 1
2112 1 1.0484796369241142e+01 4.4827808992399945e+00 1.5082963372388603e+00 0 0 0
1531 1 7.3900786185130087e+00 4.2069848839745579e-02 1.6832147469152754e-02 0 0 1
2141 1 7.9231193973119298e+00 4.5569261006343593e+00 8.9635806559870967e-01 0 0 1
1071 1 6.2165930232771798e+00 1.4486844040959057e+00 4.7080286870356360e+00 0 0 -1
1001 1 6.9178988694031949e+00 2.7108557139227605e+00 1.3200638726864061e-01 0 0 0
1039 1 3.3419591111328879e+00 4.3530655417625637e+00 2.1448189560401998e+00 0 0 0
4238 2 2.1957345619533379e+00 4.4561564719305782e+00 1.5109263837706086e+00 1 0 0
3619 2 2.9893778536263369e+00 3.8159668121796235e+00 3.0471977828621566e+00 0 0 1
586 1 2.3088237323326561e+00 4.0712714777673904e+00 2.3733968398456815e+00 0 0 0
2132 1 9.2337808395177383e+00 5.1872356188163926e-01 3.3632811250124881e+00 0 0 0
1682 1 7.0331549166579945e+00 3.1355754993485001e+00 3.6571027878964553e+00 0 0 0
1440 1 3.7380183202480382e+00 3.4315605840930261e+00 2.8061872389593430e+00 0 0 0
664 1 4.4316448884939161e+00 3.7470295912073488e+00 2.0189000642591193e+00 0 0 0
550 1 4.0656034127122158e+00 4.5971691576139113e+00 2.8621295887182767e+00 0 0 0
655 1 5.0688071599609827e+00 4.5200708223918191e+00 2.6080938207799829e+00 0 0 1
994 1 4.7715344770187551e+00 3.7367111457069249e+00 3.1593447097931664e+00 0 0 0
1428 1 6.3526285893395569e+00 3.8254040375203129e+00 1.6857091301629115e+00 0 0 0
1613 1 9.4654685611124432e+00 3.9927857172757273e+00 4.5829941686992219e+00 0 0 0
534 1 6.1054183789876086e+00 3.1974334402372193e+00 3.0914903960582838e+00 0 0 0
1271 1 5.4478621422685443e+00 3.5715668831135994e+00 2.3219282681233544e+00 0 1 0
1474 1 9.9514881454089004e+00 4.3428826113148729e+00 3.1419511134140654e+00 0 0 0
3838 2 6.6459598005047624e+00 3.9151863379518148e+00 3.3614074389774871e+00 0 0 0
3127 1 2.7462278052250637e+00 4.0184598892633527e+00 3.9353833548585877e+00 1 0 0
1072 1 8.0551197275981146e+00 3.2041265930987262e+00 2.1649876579172340e+00 0 0 0
1535 1 7.0185671688869231e+00 3.4025971839608911e+00 2.6322724078325348e+00 0 0 0
3964 2 7.7510006431043781e+00 3.1919344315935123e+00 2.9596435232847944e+00 0 1 0
1858 1 7.5750202085680192e+00 1.2233960880556216e+00 4.5531169367461910e+00 0 1 0
1103 1 8.3388551644524718e+00 2.6311412191246408e-01 4.2368078251786176e+00 0 0 0
2076 1 7.8828311962042434e+00 1.3237448345944347e+00 2.8453513862092303e+00 0 0 1
3040 1 3.4476149095962558e+00 4.6226419069832394e+00 2.8132177263138142e-01 1 0 0
3855 2 4.2697524670698933e-01 1.2275584679678166e+00 3.6213976841632047e+00 0 0 0
1607 1 9.0055342990177021e+00 4.6364482169385584e+00 3.9322750590695249e-01 0 0 1
599 1 2.4682847910674814e+00 5.3879021320956533e-01 3.9434210656776703e+00 0 0 0
2108 1 6.6432835352589859e+00 3.0518747892984655e+00 4.6903910694285988e+00 0 0 0
194 1 4.3400352427546496e-01 1.0534614930394199e+00 4.4572428463305709e+00 0 0 0
1050 1 5.6314669877659576e+00 2.6700101059063228e+00 1.5504848587424458e-01 0 0 0
386 1 4.6963099644444908e+00 7.0480122795859745e-02 4.0516978421637662e+00 0 1 0
50 1 4.4064517842684605e+00 4.7644897432694915e+00 1.8051186694480419e+00 0 0 0
1880 1 8.4715680004886771e+00 3.8542862586974826e+00 2.8816658948636831e+00 0 0 0
1584 1 1.2821006351707651e+00 1.4077649037433069e+00 3.8929599743171441e+00 0 0 0
3464 2 2.4183237521647620e+00 1.2101814140263634e+00 3.4724020203039925e+00 0 0 -1
652 1 2.1608512356797185e+00 1.6321034619286892e+00 4.3299505599749066e+00 0 0 0
1622 1 8.0485413057192030e+00 3.2291096066242679e+00 3.8652753932432304e+00 0 0 0
991 1 7.4442382912810903e+00 4.4342683869955446e-01 2.4398404790790469e+00 0 0 0
4264 2 3.1989052847956736e+00 7.7338125532670632e-01 3.3399157729115223e+00 1 0 1
1054 1 3.7173324444821381e+00 6.0207471938095580e-01 4.0196580421419732e+00 0 0 0
481 1 3.1505854530475847e+00 1.4509322231714792e+00 3.9378178952140375e+00 0 0 0
235 1 4.5925180611706757e+00 1.1463397948886815e+00 4.1152640555732072e+00 0 0 0
887 1 1.5178594338399569e+00 4.9979752281549750e-01 4.3302911489268965e+00 0 1 0
3856 2 5.4277378150952753e+00 4.0761463587756608e-01 3.5553398186954404e+00 0 0 0
2360 1 5.4775739845745726e+00 6.6738620165321427e-01 4.4302762030054677e+00 0 1 0
4042 2 2.6840603306474091e+00 1.0591984893242015e+00 4.6406971836100253e+00 0 1 0
3587 2 7.7351031734499749e+00 4.1083917406326789e+00 2.4374627092570020e+00 0 0 0
1950 1 7.3549681367391475e+00 8.0126529251012379e-01 3.6872834567189487e+00 0 0 0
4029 2 6.7555501408331731e+00 8.6132789218748929e-01 4.2761199056715142e+00 0 1 0
580 1 6.2845725224584044e+00 3.3850301631897683e-01 3.6215187695842959e+00 0 0 0
1588 1 9.2217119692455150e+00 4.7060055471956233e+00 3.9074200189982919e+00 0 0 0
4129 2 9.3427405869432132e+00 3.8104483904327466e+00 2.8532447132079053e+00 1 0 1
1425 1 8.4661288485187178e+00 2.1891458379878297e+00 4.0202613598176908e+00 0 1 0
17 1 2.8068251612815287e-01 5.3903416905969614e-01 1.9201111470086731e+00 0 0 0
1242 1 4.4218487248629703e+00 1.4240710983099047e+00 3.4674816211359238e-01 0 1 0
906 1 8.1653013388857563e+00 2.1627894939204597e+00 2.2714982207091188e+00 0 1 0
4296 2 7.2159005073688149e+00 4.7548819212121956e+00 4.6322297986374990e+00 1 0 0
3772 2 1.7456593724533502e+00 4.7483445405334312e-01 4.9128763079089793e-01 0 1 1
4242 2 9.5586158095998055e+00 5.3890153969097132e-01 1.4759023361394956e+00 0 0 1
1359 1 6.9605819013308192e+00 9.5594067594807874e-01 4.6352592589738850e-01 0 1 1
2854 1 9.5185179359959697e+00 1.3496488788323133e+00 4.1925190863592317e+00 0 1 0
1526 1 3.9648356011850217e+00 3.0651598180889863e+00 4.6720659892730998e+00 0 0 0
288 1 1.1708658928596902e+00 3.4990774342911881e+00 3.6710167913649348e+00 0 1 0
4208 2 1.4352793032056930e+00 3.2929192157831970e+00 4.4836842778176624e+00 1 0 0
543 1 1.4409130227312770e+00 2.5235626488001692e+00 4.0842607653793266e+00 0 0 0
1165 1 2.3758084232759042e+00 2.3297736551981321e+00 3.5207327520035507e+00 0 0 0
802 1 2.2572396247933906e+00 3.1731063511870650e+00 4.2313235803127158e+00 0 1 0
572 1 3.0625709041634948e+00 3.0843919740448049e+00 3.5086127591001799e+00 0 0 0
1167 1 3.0169099663620305e+00 2.4303664460609684e+00 4.3569812389426668e+00 0 0 0
1485 1 9.6360221629247462e+00 5.6717415300342333e-01 2.3355427622249789e+00 0 0 0
3719 2 3.1346479172734858e+00 3.3298974719512162e+00 4.3500385066394172e+00 0 0 -1
4119 2 3.4267403571960857e+00 2.1924382931968780e+00 3.5553844004468913e+00 0 0 0
1007 1 4.0385870265700401e+00 2.0532422195270632e+00 4.2054138241663575e+00 0 0 0
2164 1 4.1634994287971114e+00 2.8863821456195566e+00 3.6071402200496601e+00 0 0 1
3884 2 4.7298792402830170e+00 2.7301938419122149e+00 4.3564487172105615e+00 0 0 1
1062 1 4.7756844538443790e+00 1.9978342471513617e+00 3.4072627082629698e+00 0 0 0
1194 1 5.7673444618576983e+00 1.3811377674981997e+00 3.6119336034774006e+00 0 1 0
814 1 5.2449489091927255e+00 1.9580980948021507e+00 4.3278855344737197e+00 0 1 0
1081 1 5.2602550321232959e+00 2.9601105435019686e+00 3.6677344172908972e+00 0 0 1
860 1 6.1282542565311253e+00 2.3961912124567855e+00 3.9268579929935101e+00 0 1 1
3460 2 8.4339886243789284e+00 1.9088997716915808e+00 3.1523754725899158e+00 -1 0 0
2250 1 8.4463166902062934e+00 1.2019671533560863e+00 3.8102470016742793e+00 0 1 0
2098 1 6.2594910896905827e+00 3.4681840008476610e+00 3.6762325662068868e-01 0 0 1
1573 1 6.8225167980182020e+00 1.6566600172152672e+00 3.8339054044787635e+00 0 0 0
537 1 7.4760225378399765e+00 2.3153480446118575e+00 4.3171344504685143e+00 0 0 0
508 1 5.8472460043231731e+00 4.2075318520556841e+00 3.1965055230721271e+00 0 0 0
964 1 9.9379765364151353e+00 2.9501307632346849e+00 1.7675867581829992e+00 0 0 0
2063 1 9.8273116239875868e+00 3.1099039134827136e+00 2.9165252130904271e+00 0 0 0
124 1 4.7959034724324630e+00 3.6389112301417779e+00 4.2964516093042029e+00 0 0 0
177 1 1.6774728841388296e+00 4.6904592315477274e+00 3.0481567921243333e+00 0 0 0
1505 1 3.8685605604386204e+00 3.8430050735520163e+00 3.7680066716875902e+00 0 0 0
232 1 1.7316232529332871e+00 4.0780187156591241e+00 4.3051991550527866e+00 0 0 0
1137 1 9.0096823496802543e+00 4.7028580439023377e+00 2.8369191843396084e+00 0 0 1
3121 1 8.8016239395484810e+00 3.2045713625420000e+00 4.6017034399764256e+00 0 0 0
4228 2 1.7083130593795901e+00 9.1277309132732229e-02 1.8179757376818504e+00 1 0 0
1519 1 8.5924189853838744e+00 4.1364523557653271e-01 2.0930185987241727e+00 0 0 0
2084 1 8.6761117408587189e+00 3.4960873684233182e+00 2.7528512748193682e-02 0 0 1
691 1 3.4997469392817733e+00 4.7969435299310241e+00 3.9021723663143839e+00 0 0 0
636 1 1.5312876855803370e+00 4.7496902441735012e+00 1.9606810560301133e+00 0 0 1
4133 2 1.0130029421842845e+01 4.4759661518545881e+00 4.3393170769365490e+00 0 0 0
3688 2 2.5095183762801678e+00 4.2594628189650630e+00 4.7044212397720369e+00 0 1 0
171 1 1.2483902323115554e+00 4.5897261776817633e+00 9.2390500811658749e-01 0 0 1
2100 1 9.7171139857202178e+00 3.3773037909347927e+00 6.0899014894235259e+00 0 0 0
348 1 4.3421848681598058e-01 1.5472504051820186e+00 7.8029623718297678e+00 0 1 -1
617 1 6.0408748187098738e+00 4.4465832698737744e+00 8.0275671535569391e+00 0 0 0
1171 1 8.8681151573098180e+00 2.7859086103386130e+00 5.6730073376783210e+00 0 0 0
1069 1 2.7107931925235871e+00 1.6850688465627599e+00 5.2307838113964005e+00 0 0 0
4078 2 8.4866932740505110e+00 5.9354958907518773e-01 5.5122586143279708e+00 0 1 0
3545 2 6.0719044118888821e-01 1.5236212638358304e+00 5.3835953780376382e+00 0 1 0
2057 1 6.5004972686063933e+00 6.4686178737568725e-02 7.1860968395041880e+00 0 0 0
4220 2 8.0365149862919569e+00 1.2229654742053711e+00 7.3906106580732329e+00 0 0 -1
3728 2 9.4113451302546665e+00 2.9378979174368736e+00 7.9727925579637082e+00 0 0 0
1628 1 8.3247986934555005e+00 4.0155355622038851e+00 8.0912393058682142e+00 0 0 0
706 1 1.2974289474242719e+00 1.2062781314225590e+00 5.9051667095237086e+00 0 0 0
69 1 1.4310120334985321e+00 4.6863555892401321e+00 8.8779395178755536e+00 0 0 -1
3513 2 1.9601674453385052e+00 1.7598849290349512e+00 5.6379446461500224e+00 0 0 0
842 1 1.9777137892668324e+00 9.4395702626987144e-01 5.1420145030392677e+00 0 1 0
913 1 2.5734804597431813e+00 1.3551307029650506e+00 6.1787107357591760e+00 0 1 0
517 1 5.0829658719224948e+00 4.6160272060659748e+00 9.2914727250552112e+00 0 0 0
1904 1 7.9588332674534445e+00 1.4021328760376397e+00 5.6199430117914995e+00 0 1 0
3611 2 3.7143421686719229e+00 5.2352543563276799e-01 5.5512602008519991e+00 0 0 1
3752 2 3.4194326221428817e+00 1.3944523790530901e+00 5.7412804983224941e+00 0 0 0
526 1 2.8378870225403015e+00 6.2491523534475601e-01 5.5263757521233430e+00 0 0 -1
1080 1 3.6334529560003146e+00 8.2182201821304190e-01 6.3379693346697827e+00 0 0 0
1514 1 6.3052098996165258e+00 2.8315358759103821e+00 8.9820079623564126e+00 0 0 -1
1128 1 4.2765663156870390e+00 1.3578820051227565e+00 5.7143630200312279e+00 0 0 1
1557 1 9.3696767026589729e+00 3.7211156381124062e+00 8.2562326764840872e+00 0 0 0
2053 1 8.6517316700424853e+00 1.8584040831577475e+00 6.1432530491766126e+00 0 0 0
1683 1 5.2962325368702423e+00 6.0988934241690618e-01 6.3116440913652374e+00 0 0 0
1199 1 5.2977117290848543e+00 1.3159464533468868e+00 5.2900134719169545e+00 0 1 0
3749 2 8.0339175685524911e+00 3.1157748512170800e+00 8.4489170195963865e+00 0 0 0
4122 2 6.0164403971152627e+00 7.3698608379840602e-01 5.2277703742704089e+00 0 0 0
1349 1 6.3277669716578506e+00 2.9066969649533475e-01 5.8854768492877456e+00 0 1 0
889 1 6.8474088553857211e+00 7.6477461329186758e-01 5.1141651165106694e+00 0 1 0
1021 1 7.9498244752590743e+00 2.7934123055630873e+00 9.3205524695770610e+00 0 0 0
1654 1 7.0719338011153532e+00 1.0344504904146496e+00 6.1917758225345301e+00 0 0 0
1438 1 8.8289942614631478e+00 4.6511769503327010e+00 9.0237572994827513e+00 0 0 -1
3814 2 1.0469949523702140e+00 4.7460798323906878e-01 6.3471801228204940e+00 0 1 0
3100 1 1.3084469071208831e+00 4.7272390866822107e+00 6.9908510007377247e+00 1 0 0
724 1 5.3269458347525926e+00 2.3629869368316772e-01 5.4222777477736956e+00 0 1 0
624 1 6.3639652771867530e+00 1.8546685615004053e+00 9.6286668000738462e+00 0 0 0
1566 1 6.4369602265111920e+00 3.4877972507081236e+00 8.2337218396456695e+00 0 0 0
2619 1 1.0038192063280590e+01 4.1983106883707588e+00 6.8489585037562168e+00 0 0 0
4297 2 3.1364140480538487e+00 1.5983061570814600e-01 8.2204300784991506e+00 1 1 1
695 1 1.2784731363709838e+00 2.1950609952189870e+00 5.9287926013298629e+00 0 0 0
602 1 9.9082872864210414e-01 2.7749385605336836e+00 5.0774050567820064e+00 0 0 0
2586 1 1.0173335456923751e+00 3.1044741667127695e+00 6.2793684339199372e+00 1 0 0
4302 2 1.7951655313014290e+00 2.8836327946563247e+00 5.9465882301920301e+00 1 1 0
1180 1 2.5071184540370557e+00 2.3852418138979519e+00 5.9964534323777636e+00 0 0 0
1482 1 2.9224681104904340e+00 3.1230144569629528e+00 5.1928686820988545e+00 0 0 0
370 1 2.2456587852557974e+00 5.8827272252581286e-01 8.1602219815712669e+00 0 1 0
675 1 2.4708073210495978e+00 3.3844946848285415e+00 6.3090464040046301e+00 0 0 0
676 1 1.9135358800771214e+00 3.4885563303018015e+00 5.2773316185054613e+00 0 0 0
1114 1 3.7067257311403732e+00 2.1222912013684252e+00 5.3141805859069704e+00 0 0 0
1187 1 4.3961688648724611e+00 2.3225296797185702e+00 6.1546070482587441e+00 0 0 0
659 1 3.5252151995795336e+00 2.9232751326905535e+00 6.0465409477750445e+00 0 0 0
3713 2 4.1933673802755953e+00 3.0408131705532315e+00 5.5420033541038096e+00 0 0 0
698 1 3.4242203112022791e+00 1.9551270430708225e+00 6.4055280306689042e+00 0 0 0
1177 1 4.7241744459749011e+00 2.4865841320468074e+00 5.2094506963225591e+00 0 0 0
1853 1 5.3104594603158199e+00 1.7671227858693319e+00 6.2853737063728232e+00 0 1 1
3123 1 5.3363398941562856e+00 2.8060655084389463e+00 6.0052448787542350e+00 1 0 0
3577 2 6.0577713889970548e+00 2.3074404166633391e+00 6.1627170327138314e+00 0 0 -1
1676 1 6.0245387941147497e+00 2.3348405839351134e+00 5.2838357709501276e+00 0 0 0
1647 1 6.1802440191166195e+00 1.4762623394475449e+00 5.7730013916576617e+00 0 0 0
3707 2 6.5573764336659792e+00 1.0229782316837190e+00 9.3575110828011550e+00 0 0 -1
3518 2 3.7019127528813125e+00 7.5333503773751365e-02 6.6033510357470275e+00 0 1 0
1153 1 6.8959828611770320e+00 2.1959489899905593e+00 6.5217151843086691e+00 0 0 0
4284 2 8.8315568585381481e+00 2.1916720404279527e-01 6.7545359715832163e+00 0 1 0
998 1 7.5962914448450984e+00 4.3945743231703887e+00 6.5840656406765810e+00 0 0 0
628 1 6.5618544589128192e+00 4.2572903221496627e+00 4.9689520522817903e+00 0 0 0
2610 1 9.2680015389205401e+00 2.1271431634531739e+00 8.3030009501400563e+00 0 0 0
1688 1 8.8185044989987595e+00 3.8175208439872503e+00 5.3720537363594554e+00 0 0 0
625 1 9.1275135472360769e-01 1.9278782675542210e+00 9.5882793077309554e+00 0 0 0
2123 1 9.1816868256832400e+00 5.9285599611397899e-01 6.0745097443378953e+00 0 0 0
1133 1 1.7002986821448030e+00 4.0804022085029175e+00 6.1072654686936589e+00 0 0 0
1963 1 8.2404505561556149e+00 2.1701224665044614e+00 5.0015587919168363e+00 0 0 0
1115 1 8.1456298772021594e+00 3.5511528668197285e+00 6.0890656319689471e+00 0 0 0
601 1 2.8309170474406411e+00 4.1603095206300464e+00 5.6233633442705013e+00 0 0 0
1093 1 3.8918944469805972e+00 3.8842737673387036e+00 5.6818239179863967e+00 0 0 0
1814 1 8.8756237473533748e+00 3.0363955498013595e-01 8.3662465978867235e+00 0 1 0
2088 1 4.8883211313634432e+00 3.5511855828709282e+00 5.3746936816420288e+00 0 0 0
127 1 4.5151742786597451e+00 3.3971030896023300e+00 6.4146536899933002e+00 0 0 0
784 1 7.3674105637713714e+00 6.6946539025203711e-01 7.1903826727182123e+00 0 1 0
1085 1 5.9019125300320221e+00 3.4697082297949655e+00 5.4118715127843950e+00 0 0 0
3016 1 5.3895088967592262e+00 4.0387215378962216e+00 6.3920671844372556e+00 1 0 0
1184 1 6.5344449375770752e+00 3.9022575697843220e+00 6.1867802645038195e+00 0 0 0
1030 1 6.8123197451044133e+00 2.9360744240379248e+00 5.6973780117942789e+00 0 0 0
1504 1 7.4056670807360909e+00 4.0385891981882205e+00 5.5846739934839515e+00 0 0 0
2071 1 8.3077248763511342e+00 3.8080746182664238e+00 7.0815948421581698e+00 0 0 0
971 1 9.4940825407620952e+00 2.8271875854364712e+00 9.6129601683815462e+00 0 0 -1
4030 2 8.8366561664681402e+00 3.3315993554907717e+00 6.5180961881784203e+00 0 0 0
1498 1 4.3962415302898590e+00 2.2770042514345723e-01 6.0420417471852135e+00 0 0 0
1086 1 8.8475875388765797e+00 2.9991001125968402e+00 8.7800906931349587e+00 0 0 0
1095 1 7.5794641037401966e+00 1.2795714926450212e+00 8.1184700735822908e+00 0 0 0
914 1 2.8935986758823851e+00 3.8710583448969388e-01 9.0211533168526170e+00 0 1 0
581 1 1.4732383857777569e+00 3.9404168979383498e+00 9.6174935715565244e+00 0 0 -1
3386 1 7.7766317607205671e-01 1.0880581630045896e+00 6.8895727374788232e+00 1 1 0