LAMMPS data file via write_data, version 12 Dec 2018, timestep = 578160

4320 atoms
2 atom types

0.0000000000000000e+00 1.9309999999999999e+01 xlo xhi
0.0000000000000000e+00 1.9309999999999999e+01 ylo yhi
0.0000000000000000e+00 9.6549999999999994e+00 zlo zhi
8.4577799999999979e+00 0.0000000000000000e+00 0.0000000000000000e+00 xy xz yz

Masses

1 1
2 1

Atoms # atomic

4263 2 4.9760739595776169e+00 4.2861268046037928e+00 2.0895449625175320e+00 1 0 0
1071 1 5.2720771584317010e+00 1.3169277180189549e+00 4.6802911541418322e+00 0 0 -1
1433 1 8.3263395930156978e+00 4.1055322013201767e+00 1.4316286306745740e+00 0 0 0
2159 1 8.4772244063916311e+00 2.6516951308011469e+00 4.0260636400485215e+00 0 0 0
1684 1 9.6730319275827714e+00 2.9079246762774842e+00 2.4928602452629161e+00 0 0 0
1502 1 7.3926373450827052e+00 4.1653523045174481e+00 1.9349407907981169e+00 0 0 0
2034 1 1.0615443703179336e+01 2.6267379228133301e+00 4.0024453239034763e+00 0 0 0
577 1 1.3170473059029300e+00 1.0182853435908366e-01 1.9806352907989304e+00 0 0 0
1979 1 8.2093500247779083e+00 1.8613820689997271e+00 2.4884689927745041e+00 0 0 0
2386 1 9.7952568836555152e+00 8.0074263409056556e-01 1.6075896710951247e+00 0 1 1
253 1 1.2007975658822094e+00 9.1035741616495680e-01 1.3324962776134885e+00 0 1 0
1190 1 1.6772031960922402e+00 1.8719813152656894e+00 1.1700928923844982e+00 0 0 1
3918 2 1.5064876011907935e+00 1.8958212776867402e+00 2.5496695579736006e-01 0 1 0
30 1 5.0730146518477017e+00 3.5902126240546197e+00 3.9972034856533489e+00 0 0 0
1127 1 1.6204378783336977e+00 1.0134912012557160e+00 3.0131802865704238e-01 0 0 1
1554 1 2.5115799509999706e+00 1.3535984580825167e+00 9.1572948056054670e-01 0 0 1
4116 2 2.0664287368797769e+00 1.1416184423259739e+00 1.6292042136030713e+00 1 0 -1
95 1 3.0227284306706559e+00 4.0990762161145367e-01 1.7023318581358076e+00 0 0 0
2167 1 1.0391381963473995e+01 3.5358221710372972e+00 4.3707802575471932e+00 0 0 0
2275 1 9.5102940031493652e+00 3.1780578965441437e+00 1.3969781554999834e+00 0 1 0
870 1 3.4928846461456144e+00 1.5286795369280450e+00 1.3418921707360638e+00 0 1 1
1798 1 4.0185623090850040e+00 7.7828192311256272e-01 8.8411288141028288e-01 0 1 0
2513 1 7.9867548725185271e+00 3.6453102825804648e-02 1.4122377665656780e+00 0 0 0
1711 1 7.7573158065336774e+00 2.3704514765986122e+00 5.3582515965230160e-01 0 1 0
1615 1 5.0211883619683073e+00 9.6552651625898556e-01 1.0844303289610977e+00 0 0 1
1678 1 7.6175235844376239e+00 2.5000785445064060e+00 3.1644674578142586e+00 0 0 1
987 1 4.4626815262843520e+00 1.5935723512161240e+00 2.8188296060744911e-01 0 0 0
4228 2 4.2891658212908618e-01 2.3256606517458744e-01 1.6933342287113247e+00 1 0 0
1050 1 4.7360947608066803e+00 2.5765970174731279e+00 1.5447849582113093e-01 0 0 0
3468 2 6.3191794382691224e+00 1.0537396139473385e+00 1.1279142530809734e+00 -1 0 1
817 1 5.6206709147125788e-01 1.0115774269492468e+00 2.2316950515071583e+00 0 1 0
1470 1 7.6553328106111120e+00 2.3721771809118666e+00 1.6149945524435063e+00 0 0 0
2515 1 1.0447036934625022e+01 1.9196181859409263e+00 1.2375618962598294e+00 0 0 0
2131 1 1.0192449508784753e+01 4.5016674120754896e+00 3.5221133902380801e+00 0 0 0
1441 1 8.5772425549961895e+00 1.5078908405672349e+00 2.7743428423896671e-01 0 0 0
2081 1 9.1783765506490411e+00 1.7420808677335211e+00 4.1130916988547321e+00 0 0 0
2460 1 9.4397576578428470e+00 3.5622874734862697e+00 3.9013322374821953e+00 0 0 0
3590 2 4.9434760525630841e+00 4.4374970511564849e+00 4.0171060744910827e+00 0 0 -1
1160 1 7.0148861800025113e+00 5.1132759428325758e-01 1.4923917460248652e+00 0 0 0
1505 1 3.0239039781479562e+00 3.9299829210418542e+00 3.7904926073765512e+00 0 0 0
1570 1 1.0545754764866528e+01 2.9106473365706345e+00 1.1867887053027426e+00 0 0 1
4056 2 1.0432663050145942e+01 2.5062986538695600e+00 3.1153922097027054e+00 0 0 0
34 1 1.8502341484885338e+00 2.7042380393006344e+00 4.9643805995641416e-01 0 0 0
3775 2 6.0489851982209508e+00 2.5785786811414696e-01 3.1982415291832020e+00 0 1 0
968 1 2.9666583531827291e+00 2.4408227003005090e+00 6.2605756376178845e-01 0 0 1
3708 2 2.5122138805844410e+00 2.0930882613361885e+00 1.3620032477137598e+00 0 0 0
1166 1 2.5220682567755484e+00 3.0198751623913402e+00 1.3255333135794096e+00 0 0 1
3768 2 2.7969373420390973e+00 3.2914991408742589e+00 5.5212660912540845e-01 0 1 0
3676 2 7.0989318182061885e+00 8.0438746343107637e-01 2.2740248329206056e+00 0 1 1
3757 2 4.3973761259106787e+00 1.5253419745316577e+00 1.2485527854181011e+00 0 0 1
1764 1 3.9654601102027240e+00 2.3455551876869918e+00 8.7242807064731154e-01 0 1 0
1617 1 5.0339899678083722e+00 2.0435874094853408e+00 9.5844693535174752e-01 0 0 1
2174 1 3.0451532259579568e+00 4.1628310554113712e-01 5.6732962999203107e-01 0 1 0
1499 1 6.0139160824281497e+00 1.8376346843311735e+00 7.9573783995593383e-01 0 0 1
1544 1 7.7098502884096032e+00 1.0223652855443666e+00 7.5971869616133003e-01 0 0 0
1946 1 8.8457878131670888e+00 3.7980987086045634e+00 2.2937578755418939e+00 0 0 0
1965 1 7.8688561176350582e+00 1.0102801492582349e+00 1.8887935272677128e+00 0 0 0
1145 1 7.4889121822674785e+00 3.9406705961961470e+00 4.1672743495467026e+00 0 0 0
1689 1 8.2525341150732157e+00 1.9468498397495559e+00 4.7818772618341674e+00 0 0 0
4242 2 8.2164029880337619e+00 2.5206002051256021e-01 2.2078757644268201e+00 0 0 1
2048 1 9.8324265129680128e+00 3.8911413825889691e+00 2.5129332672711211e+00 0 0 0
887 1 5.1391467344745134e-01 6.0837739887145703e-01 4.3697644178865600e+00 0 1 0
2084 1 7.7067643793376321e+00 3.3950844817367178e+00 2.3970745711411728e-01 0 0 1
1513 1 5.9061478175409787e+00 4.1240438867739604e+00 9.1687178841725336e-01 0 0 0
952 1 7.0280865096798042e+00 1.6085129811692631e+00 1.2720046440922714e+00 0 0 0
656 1 2.1130363872173996e+00 3.7850417232046834e+00 3.3155178206819030e-01 0 0 1
2132 1 8.0906142368952807e+00 6.3809520232301520e-02 3.8456582466499163e+00 0 0 0
628 1 5.5203527664416256e+00 4.2068931825632081e+00 4.7791329716103510e+00 0 0 0
1536 1 6.4865358430746269e+00 4.6153596587965753e+00 1.7958091865758732e+00 0 0 0
1376 1 1.1602828263552356e+00 2.4175424176506874e+00 2.5371333293895995e+00 0 1 0
2201 1 7.4751325574777665e+00 3.3680754844372460e+00 1.2768632676253702e+00 0 1 0
1472 1 8.0371134443462768e+00 3.2338448550978787e+00 2.1293093280369986e+00 0 0 0
1019 1 3.5633144371382195e+00 3.2877333558690727e+00 9.4969055159408444e-01 0 0 0
1198 1 2.8654420183906160e+00 4.0261218387586535e+00 1.0596313855873936e+00 0 1 0
3627 2 3.7703251387883174e+00 4.2129974778831443e+00 6.7400009634777125e-01 0 0 1
1870 1 6.8041375071697328e+00 6.7385176520716950e-01 4.4325775856134197e-01 0 1 1
3503 2 6.6865392218638293e+00 1.4469444454375240e+00 4.1750547039772536e+00 -1 0 2
567 1 4.7028012227413010e+00 3.0137110214265435e+00 1.1600440416067275e+00 0 0 0
669 1 4.3071718180718239e+00 3.9670589397032261e+00 1.4387744855905447e+00 0 0 1
3865 2 5.0305664626966333e+00 3.8910765852962950e+00 8.9622860023710083e-01 0 0 0
1051 1 4.3403863264307310e+00 3.6680909657921501e+00 3.8236166208291555e-01 0 0 0
1783 1 3.0848934909665897e+00 2.9028362222801707e-01 2.8527243286551109e+00 0 1 0
2555 1 1.0153080511305294e+01 1.8686286054606909e+00 4.5581401969132251e+00 0 0 0
3771 2 7.8030076657156346e+00 3.1745621320383801e+00 3.8511602665045332e+00 0 1 -1
503 1 6.7690148814819597e+00 2.5780800340665135e+00 9.7608441286822245e-01 0 0 0
1506 1 5.7447282283968679e+00 2.8018346928517879e+00 1.1264928007292261e+00 0 0 0
1564 1 6.6194247678583906e+00 3.4588717690803104e+00 4.9921827824625803e-01 0 0 1
1572 1 6.4592087757880794e+00 3.5087088065158452e+00 1.5450387614445857e+00 0 0 1
1671 1 8.4517313758626837e+00 3.1112801211515908e+00 1.0052269394982196e+00 0 0 1
3695 2 1.1402316980955036e+00 6.7260636303708446e-02 1.1186181430102491e+00 0 0 -1
2006 1 9.1521738692501060e+00 3.8715083268464858e+00 7.0301104103899625e-01 0 0 0
1488 1 5.3045071150054390e+00 4.4318470498972555e+00 1.4863532383501660e-01 0 0 0
2145 1 8.2920893337980104e+00 1.6488671366141265e+00 3.5060550463081128e+00 0 0 0
2468 1 8.4068057119938864e+00 1.7257784519763679e+00 1.2682032644696086e+00 0 0 0
3793 2 5.4764060657324558e+00 1.1656026585984100e-01 4.9142215363106045e-01 0 1 0
548 1 4.5608864403172689e+00 2.9075498595061084e+00 4.7910352024899909e+00 0 0 0
2649 1 9.6084259153411260e+00 2.5733037737636830e+00 3.5639646751428096e+00 0 0 0
2108 1 5.6714877282751548e+00 2.9519425460969857e+00 4.7595079495490449e+00 0 0 0
970 1 4.4854097006512745e+00 4.4085053598397632e+00 4.7800718269436135e+00 0 0 0
1137 1 8.0417198781825139e+00 4.4490793958819941e+00 2.7450184882801936e+00 0 0 1
1065 1 1.4222790073575362e+00 2.8174409266587381e+00 1.5434249140295291e+00 0 0 0
159 1 1.4958714555481019e+00 1.4520783561831723e+00 2.2079783876025187e+00 0 0 0
1485 1 8.7635446869160614e+00 1.3087133871966095e-01 2.9641842972806973e+00 0 0 0
966 1 1.2734759659294110e+00 6.6810073999842801e-01 2.9251078713201384e+00 0 0 0
1134 1 1.9778453029200374e+00 1.7147077947390521e+00 3.0218325850955878e+00 0 0 1
1040 1 2.7381808621634338e+00 1.4962879660329558e+00 2.0163954576320982e+00 0 0 0
1358 1 2.1906677656196383e+00 7.5103122449942472e-01 2.4071787012457810e+00 0 1 1
1621 1 6.5772399325121214e+00 3.7479156755394754e+00 3.2892470276800467e+00 0 0 0
3878 2 3.2750999388867594e+00 9.4130733200090777e-01 2.3717530362367714e+00 0 0 1
631 1 2.9040975153359403e+00 1.2599935487884988e+00 3.1524409949256991e+00 0 0 0
3756 2 4.4276293177181802e+00 3.2721180941013822e-01 1.5648572711955515e+00 0 0 1
1562 1 5.2996091585783480e+00 4.7511256576303946e+00 1.4252246978127681e+00 0 0 1
575 1 3.8876817718124310e+00 9.4356564539684717e-01 3.0803349833572180e+00 0 0 0
722 1 4.2137611872014826e+00 1.1190235973877134e+00 1.9720626813500328e+00 0 1 0
1147 1 4.6589732833828368e+00 3.0990841396905355e-01 2.8494530788888932e+00 0 0 1
1351 1 5.3364063520662910e+00 4.4099663224850927e-01 1.9978961623651865e+00 0 1 0
1103 1 7.1889769405620774e+00 1.0250461075723780e-01 4.5967994138883954e+00 0 0 0
2538 1 8.7769551765988680e+00 7.4471275907670331e-01 1.1711932844041630e+00 0 0 0
1457 1 8.4779481008595816e+00 3.6029343413406862e+00 3.4256712467925281e+00 0 0 0
955 1 5.7842794313608348e+00 4.3490760412916831e+00 3.8014291719713884e+00 0 0 0
94 1 3.6133376701022074e-01 6.3967176448837659e-01 3.2918108976062017e+00 0 0 0
744 1 4.4397742811322107e+00 4.7433048446633750e+00 7.0363027949214041e-01 0 1 0
1983 1 1.0071156249161014e+01 1.6766851966192526e+00 3.5268819921617576e+00 0 0 0
3847 2 7.4336654189388671e+00 4.3623185293759112e+00 3.3865328041147467e+00 0 0 0
1359 1 5.7626944636400612e+00 9.1762859247227724e-01 1.8394127583991216e-01 0 1 1
2171 1 1.0320883019588772e+01 3.3518210817044229e+00 3.2493913245845549e+00 0 0 0
4044 2 1.0198928778542427e+01 3.7078260308357924e+00 1.7192056602535608e+00 0 1 0
2544 1 9.4963747034905506e+00 2.7876045018882945e+00 4.6173216303806726e+00 0 0 0
4281 2 8.9099942344699361e+00 7.4708794188213190e-01 1.6051412884406258e-01 0 1 0
50 1 3.5239006755598483e+00 4.6915990769897391e+00 1.5822470477989008e+00 0 0 0
851 1 7.7245453881452231e-01 1.5169930105136065e+00 6.4217636427205627e-01 0 1 0
2941 1 2.0035719823195937e+00 3.3650171012279957e+00 2.2854437035039554e+00 1 0 0
3608 2 1.9126849073825123e+00 2.6959367564496493e+00 2.8688925984547007e+00 0 0 0
2440 1 1.1569485358167961e+01 4.7016998207505143e+00 1.7801792057068762e+00 0 0 0
555 1 2.1524178352264070e+00 2.3197969050284151e+00 2.1288804125367689e+00 0 0 0
505 1 3.2853788741206964e+00 2.4223752273159613e+00 1.7084237686250221e+00 0 0 0
663 1 2.8226284261474577e+00 2.3511255619400839e+00 2.9187996643668375e+00 0 0 0
3686 2 2.8359813514883045e+00 2.9004730931598757e+00 2.2191560449189871e+00 0 1 0
1446 1 3.7116512895322367e+00 2.8385301324110128e+00 2.5566130689099258e+00 0 0 0
568 1 3.6271255699600680e+00 1.7752662350830712e+00 2.5139235389539856e+00 0 0 0
3703 2 3.9647313367647170e+00 2.9685477246577459e+00 1.7105674796692381e+00 0 0 0
3533 2 4.6938251741320522e+00 1.2589978990730057e+00 2.7122857697930143e+00 0 1 0
1462 1 4.2837964876328742e+00 2.1919671640249234e+00 1.8239547117692985e+00 0 0 0
1511 1 4.6115458890972603e+00 2.0811242597931567e+00 2.8487608041341477e+00 0 0 0
1561 1 5.2272780629732161e+00 2.6122415825422260e+00 2.0411158275490218e+00 0 0 0
2197 1 5.6359713561027247e+00 1.0956683398794875e+00 2.8966795298489281e+00 0 1 0
566 1 5.2721928988133104e+00 1.5870165115228445e+00 1.9123421060024366e+00 0 0 0
1437 1 6.3022408734308657e+00 2.3126908611266725e+00 1.9481271444793631e+00 0 0 0
2101 1 6.3306491183397000e+00 1.2086932614658754e+00 1.9362375298712891e+00 0 0 1
3946 2 6.1982602411097005e+00 1.6670993699927696e+00 2.5873957219879440e+00 0 1 0
1721 1 5.7238189882973183e+00 2.2631887724729292e+00 2.9472246888079932e+00 0 1 0
2421 1 6.6408088102188598e+00 1.9937899273374300e+00 3.3044334641003066e+00 0 0 0
2689 1 7.9386449526254825e+00 8.0016403753555088e-01 2.9420039534839018e+00 0 0 0
3482 2 7.1965743793621701e+00 4.1301471812803019e+00 1.6733931274537786e-01 0 0 1
1191 1 4.1427451458181945e+00 4.5241996157805078e+00 3.7085561756366698e+00 0 0 0
1696 1 6.4425342409523623e+00 3.7096203460809085e+00 4.4033712354147294e+00 0 0 0
1489 1 9.1313624249940979e+00 9.4594235830864093e-01 3.3664004271460168e+00 0 0 0
2037 1 5.8547146676226420e+00 4.2119247892257956e+00 2.4902511756334071e+00 0 0 0
1031 1 1.0315144424382483e+01 3.8469748863566262e+00 8.3981128575797304e-01 0 0 0
2112 1 9.4801994329997505e+00 4.3320792687865746e+00 1.5816521366506628e+00 0 0 0
1588 1 8.2297449018390054e+00 4.5623719900212940e+00 3.8279427158230481e+00 0 0 0
2141 1 7.0280374712219356e+00 4.3865126713150886e+00 9.8257174247062451e-01 0 0 1
242 1 2.0523104112775519e+00 3.7564608242359748e-01 1.1999552086849818e+00 0 0 1
2592 1 9.8464175661552726e+00 4.5453121063614441e+00 4.4602201110249853e+00 0 0 0
1039 1 2.5872708932698867e+00 4.3761373988339818e+00 2.0684052117295000e+00 0 0 0
1527 1 9.7285357907052799e+00 3.0983660521557694e+00 3.0741746031780465e-01 0 0 0
3619 2 2.0819726144432433e+00 3.8119153450029688e+00 3.0380600134010289e+00 0 0 1
4296 2 6.2482095646305051e+00 4.6106644184939602e+00 4.5237981411361510e+00 1 0 0
1076 1 9.5811560270277454e+00 1.3449327987503268e+00 7.9450739767433431e-01 0 0 0
1682 1 5.8733833101018176e+00 3.0170131964378277e+00 3.7273686877392427e+00 0 0 0
1440 1 2.9871919318403277e+00 3.5248698220766204e+00 2.8441897316308551e+00 0 0 0
664 1 3.2984469842622799e+00 3.5900591044460475e+00 1.9142739772035893e+00 0 0 0
550 1 3.2285364088821895e+00 4.6523296348647909e+00 2.8287683586529022e+00 0 0 0
655 1 4.1973214495742770e+00 4.5207651747684885e+00 2.4888793673243219e+00 0 0 1
994 1 3.9837550215888879e+00 3.6095475555881422e+00 3.1858400387512598e+00 0 0 0
1428 1 5.3763798114122840e+00 3.6272570799297408e+00 1.6505243793568516e+00 0 0 0
1613 1 8.4952439140552762e+00 3.7173290443305049e+00 4.5226927960066519e+00 0 0 0
534 1 5.0906990417215408e+00 3.1175545954112982e+00 3.0168520986285587e+00 0 0 0
1271 1 4.4760093161656016e+00 3.3735816707638087e+00 2.2525731199175008e+00 0 1 0
1474 1 9.1302464444413882e+00 4.3894181438957780e+00 3.1154485948924737e+00 0 0 0
3838 2 5.6524006260488182e+00 3.6912491269906269e+00 3.2668271687589101e+00 0 0 0
3127 1 2.0261670172054762e+00 4.1712627322390716e+00 3.8661907273748124e+00 1 0 0
1072 1 7.0782525577311457e+00 2.8772257732295015e+00 2.3362978793435505e+00 0 0 0
1535 1 6.0215645506164908e+00 3.1852632120120381e+00 2.5709425368808980e+00 0 0 0
3964 2 6.5791125659386323e+00 2.8251648689420672e+00 3.0878416553714447e+00 0 1 0
3040 1 2.4742088738058690e+00 4.6733885009899954e+00 4.5869223453892286e-02 1 0 0
1988 1 9.4189386009280067e+00 1.7316771665592736e+00 1.7952493744597675e+00 0 0 0
2076 1 6.7288507477641764e+00 9.1569600341491253e-01 3.0398355827186503e+00 0 0 1
2850 1 8.8005698953279303e+00 9.2390580456453897e-01 2.2924860041166562e+00 0 1 0
2642 1 1.0208944206820600e+01 1.9616087236772302e+00 2.4448946770583748e+00 0 0 0
1607 1 8.0900771271536023e+00 4.3788736289509105e+00 4.5387812073148459e-01 0 0 1
599 1 1.4689504885511107e+00 6.4296787408950651e-01 3.9950189526583362e+00 0 0 0
4129 2 9.2130856934128822e+00 3.5060396818930721e+00 3.0493490058198649e+00 1 0 1
1122 1 8.2321180773511262e+00 2.3395587915828897e-01 3.6735487388182286e-01 0 0 0
3730 2 9.9518420494335444e+00 2.4986270093192271e+00 1.7777542554868999e+00 0 0 -1
2631 1 9.2528430111769282e+00 1.8779259614577404e+00 2.8589757815273082e+00 0 0 0
1098 1 7.0203271145658928e+00 1.6618187167468381e+00 8.8642650395787059e-02 0 0 1
1880 1 7.5086214556077291e+00 3.5629067671034398e+00 3.0416061927572837e+00 0 0 0
4132 2 1.1026299241420800e+01 4.5317470345557753e+00 3.3919658467996605e+00 0 0 0
3464 2 1.4682167454158770e+00 1.4400143766825868e+00 3.6226573606244483e+00 0 0 -1
652 1 1.1089370262330951e+00 1.7658732207950403e+00 4.3154794908289125e+00 0 0 0
1622 1 6.9120165478416737e+00 2.8928743697055834e+00 3.9349788093976197e+00 0 0 0
991 1 6.3485221159481364e+00 1.8617009837221168e-01 2.3535237813238661e+00 0 0 0
4264 2 2.0910652282806002e+00 8.8256196848411483e-01 3.3063130270935499e+00 1 0 1
1054 1 2.6133570908891497e+00 4.7002252113581672e-01 3.8529198087798595e+00 0 0 0
481 1 2.1977522865788144e+00 1.4835629916912889e+00 4.0379735744055401e+00 0 0 0
235 1 3.4395118111736847e+00 1.0403853497306230e+00 4.1589069478443301e+00 0 0 0
3051 1 1.1053117170946173e+01 4.8118676803633660e+00 8.8810727771731968e-01 0 0 0
3856 2 4.4969190122614187e+00 4.7949018939610977e-01 3.6621800655449390e+00 0 0 0
2360 1 4.3166263226987489e+00 7.3054920120695066e-01 4.4905659548091315e+00 0 1 0
1066 1 9.2120743221277319e+00 2.3258945258629153e+00 8.6334223283021816e-01 0 0 0
3587 2 6.6668801405421636e+00 3.8725657782769489e+00 2.4366372024989098e+00 0 0 0
1950 1 6.4652447374828697e+00 5.1807477947821767e-01 3.9259622302881318e+00 0 0 0
4029 2 5.7642946251828153e+00 6.4236710700606803e-01 4.4187832731440091e+00 0 1 0
580 1 5.3742167474805447e+00 4.8385314709708599e-01 3.6949528917531724e+00 0 0 0
1439 1 1.0615625957784122e+01 3.1032857891429129e+00 2.1804869309227541e+00 0 0 0
574 1 2.6207127759669264e+00 4.1297350974676661e+00 4.7529479951287215e+00 0 0 0
1425 1 7.4410674400461492e+00 1.9735360738059204e+00 4.0778740353445571e+00 0 1 0
2506 1 1.0902668374444371e+01 4.0944555212757265e+00 2.6129488673620682e+00 0 0 0
1242 1 3.3725960870868579e+00 1.5315416104229072e+00 2.8524504083588881e-01 0 1 0
906 1 7.1298412509617783e+00 1.7496576174457654e+00 2.3706658313708617e+00 0 1 0
3121 1 7.6520144260891705e+00 2.9168275578637233e+00 4.6534654513968050e+00 0 0 0
3772 2 8.1171121172859362e-01 5.8063117853017698e-01 4.5767074280984549e-01 0 1 1
1973 1 1.1118211508171735e+01 3.8462071699559841e+00 1.5518625424613890e+00 0 0 0
1526 1 2.9986206732526264e+00 3.0545604144370961e+00 4.7797869962507615e+00 0 0 0
2854 1 8.4867123208029493e+00 1.0325144242543134e+00 4.3080207434986999e+00 0 1 0
1357 1 3.8419142201041740e+00 2.1623043274366816e-01 2.2575643438975770e+00 0 1 1
2646 1 9.9006356610178585e+00 9.4904108575794166e-01 2.5769334019574681e+00 0 0 1
3601 2 1.0125385721988701e+01 2.3945443023427941e+00 6.1658318466482787e-01 -1 0 1
1117 1 3.2668839692483829e+00 3.8876441019067443e+00 9.1666032564230671e-02 0 0 1
1165 1 1.4637699158776272e+00 2.4035142949472159e+00 3.5674219197559895e+00 0 0 0
4133 2 9.0888408621497199e+00 4.3977793834936278e+00 4.0258877561830042e+00 0 0 0
572 1 2.2185017198844448e+00 3.1019580213509039e+00 3.5234837255861216e+00 0 0 0
1167 1 2.0522920956926756e+00 2.5703629555404439e+00 4.4808138254992533e+00 0 0 0
971 1 8.6627215956620311e+00 2.6876145917799481e+00 2.1792981764734095e-02 0 0 0
3719 2 2.3096738208854521e+00 3.4334262390601773e+00 4.2900913194436443e+00 0 0 -1
4119 2 2.4803913576600634e+00 2.2557199396684431e+00 3.7745246331581574e+00 0 0 0
1007 1 3.0835093745729933e+00 2.0381284947603522e+00 4.3441047731977331e+00 0 0 0
2164 1 3.2780420821283331e+00 2.9023438463605391e+00 3.7028899899346683e+00 0 0 1
3884 2 3.7826204433003134e+00 2.7286148608674394e+00 4.4511632551405009e+00 0 0 1
1062 1 3.6868324039507736e+00 1.9437687730256528e+00 3.5011975977041461e+00 0 0 0
1194 1 4.7723871275813998e+00 1.3540372242739194e+00 3.6297414864533857e+00 0 1 0
814 1 4.2761532825886839e+00 1.9142759840862320e+00 4.4909947041688429e+00 0 1 0
1081 1 4.3628735250378927e+00 2.7183734394165118e+00 3.7542557772026428e+00 0 0 1
860 1 5.2807139133629466e+00 2.2160923109244388e+00 4.0738746130788197e+00 0 1 1
3460 2 7.5119211403427473e+00 1.6121025056328611e+00 3.1536167608519894e+00 -1 0 0
2250 1 7.3833694148411153e+00 9.1891756254125001e-01 3.9195939025194835e+00 0 1 0
2098 1 5.3699475030338615e+00 3.3250916257361833e+00 3.4800880454646377e-01 0 0 1
1573 1 5.9207086177670813e+00 1.3549768533241990e+00 3.8403108838578919e+00 0 0 0
537 1 6.2992887676998839e+00 2.1865934080306682e+00 4.3899245316146462e+00 0 0 0
508 1 4.9575962198318830e+00 4.2836409887121238e+00 3.1084147841734704e+00 0 0 0
964 1 8.7677345669353688e+00 2.5631900781496477e+00 1.8130506264774919e+00 0 0 0
2063 1 8.6357846090888852e+00 2.8091991384785442e+00 2.8937768344581052e+00 0 0 0
124 1 3.9075440742791883e+00 3.6891634356958165e+00 4.2156691399683952e+00 0 0 0
2667 1 1.0962819053100169e+01 4.6662561012426753e+00 4.2355840875224882e+00 0 0 0
1538 1 7.1970676430410014e+00 7.7315786253024557e-02 3.3858112019650903e+00 0 0 0
1471 1 9.1688180056585473e+00 1.5121330109307152e-01 4.0946035740160971e+00 0 0 0
2462 1 1.0450295886409293e+01 4.6099239479146643e+00 1.7340020138507855e+00 0 0 0
1029 1 4.7570951032420083e+00 6.1557619081617443e-01 1.3806126946270808e-01 0 0 0
1571 1 6.9568843227508133e+00 4.6369370798492406e+00 2.7759077248905974e+00 0 0 0
668 1 1.7775225763490010e+00 3.8413544619487410e+00 1.3709862540587969e+00 0 0 0
513 1 3.4994169804633870e+00 4.6164729394898680e+00 4.5513069014587071e+00 0 0 0
1001 1 6.0823402279244672e+00 2.6501777680863019e+00 1.2297230416452139e-01 0 0 0
767 1 6.0345825531276978e+00 1.9133246873777124e-01 1.2143859209437093e+00 0 1 0
835 1 2.2382078807068695e-01 7.1772049636786656e-02 8.7012392050930865e-01 0 1 0
1463 1 6.8456793459478158e+00 4.7643091740766135e+00 3.9258372080803992e+00 0 0 0
2035 1 1.1184702232792517e+01 3.7722070086340986e+00 3.6845551540426973e+00 0 0 0
56 1 2.4056962324944493e+00 1.8431055116476607e+00 2.5123060986547926e-02 0 0 0
4042 2 1.8071626311943443e+00 9.5248102996005823e-01 4.7616537925752267e+00 0 1 0
4006 2 1.0308788598905734e+01 2.7379830952225239e+00 4.7773498136987174e+00 0 0 0
386 1 3.7374964676409914e+00 5.7105773620014497e-02 3.5642611679060203e+00 0 1 0
1589 1 1.0007368650226541e+01 4.8048294384531740e+00 7.2950487791430474e-01 0 0 1
2444 1 9.7536002998321560e+00 3.0883515417173668e-01 6.6612493724800026e-01 0 0 0
3867 2 7.9277305731168024e+00 4.3999504013116573e+00 4.8161747791475893e+00 0 0 0
2100 1 8.8347056777248518e+00 3.4552487722250458e+00 6.1107317531518115e+00 0 0 0
3391 1 9.4338211156530942e+00 8.5865108546370994e-01 7.0347922087852117e+00 0 1 0
617 1 5.0746467509809943e+00 4.4134965699512536e+00 8.0658916826032563e+00 0 0 0
1171 1 7.6618684987312324e+00 2.5073150246765281e+00 5.7237115293676935e+00 0 0 0
1069 1 1.7911257628547359e+00 1.7546074779598853e+00 5.1270165109187040e+00 0 0 0
1082 1 9.5586154546423767e+00 2.9033190105575004e+00 5.6661570142101283e+00 0 0 0
662 1 3.9483953529280527e+00 4.7390215273877505e+00 7.4228198187904022e+00 0 0 0
2038 1 9.8707036862302857e+00 3.8766669979229218e+00 6.0267501371286514e+00 0 0 0
4220 2 7.2819906187301946e+00 8.6196103105898669e-01 7.4704647521540242e+00 0 0 -1
3728 2 8.6148607413819676e+00 2.8515651614807167e+00 8.0465706906912757e+00 0 0 0
1628 1 7.3905013172490834e+00 3.9459559313858619e+00 8.0794603154125841e+00 0 0 0
2622 1 1.0559716719918930e+01 3.4368328183304477e+00 9.3779820878873306e+00 0 0 0
2165 1 9.4856634724822104e+00 2.0963878261900892e+00 6.3348914960641842e+00 0 0 0
3513 2 1.0162796264194305e+00 1.7637218320298853e+00 5.6643813619719960e+00 0 0 0
842 1 8.7276402303063128e-01 1.1231453824417286e+00 5.1738261137028116e+00 0 1 0
913 1 1.5206775438684665e+00 1.4917917594699284e+00 6.3087183171273669e+00 0 1 0
517 1 4.1267915088559155e+00 4.5120838540198775e+00 9.3306829991186220e+00 0 0 0
1904 1 6.9063778759900663e+00 1.2498463119855892e+00 5.9181581982666449e+00 0 1 0
3611 2 2.8097686614850668e+00 4.3986139074895209e-01 5.5913660031577521e+00 0 0 1
3752 2 2.4745157054433431e+00 1.4652864383334556e+00 5.8517445063507454e+00 0 0 0
526 1 1.9015319581590175e+00 7.6821064932330241e-01 5.5976355977588517e+00 0 0 -1
1080 1 2.6924507833414180e+00 8.6614719915706073e-01 6.4034202214799185e+00 0 0 0
1514 1 5.3387795917737044e+00 2.8364084527456628e+00 8.9223133541305319e+00 0 0 -1
1128 1 3.3405784628110471e+00 1.4334057089651036e+00 5.8090281982742669e+00 0 0 1
1557 1 8.4318864968137355e+00 3.7211129425234111e+00 8.3415250598040345e+00 0 0 0
2053 1 7.7259749601139482e+00 1.6347837205827633e+00 6.3993791913594205e+00 0 0 0
1683 1 4.3635528880557191e+00 7.8961294938087934e-01 6.2662994566316410e+00 0 0 0
1199 1 4.3245586221328214e+00 1.3286526994722105e+00 5.3770578208524578e+00 0 1 0
3749 2 7.2117826677835888e+00 3.0804084643728906e+00 8.4476516581902139e+00 0 0 0
4122 2 4.9305781634527985e+00 6.6332600278263143e-01 5.0940711903543940e+00 0 0 0
2669 1 9.6932994671381945e+00 1.5207872079696072e-01 5.6487374230992602e+00 0 0 0
889 1 5.8227816466055398e+00 4.0240033170027134e-01 5.2489651098897836e+00 0 1 0
601 1 1.9208623400194309e+00 4.3589415884152682e+00 5.6098848716178322e+00 0 0 0
1654 1 6.0780184665263288e+00 7.2875472669447305e-01 6.2853048023849603e+00 0 0 0
2364 1 9.5312677882424701e+00 1.1636797984213774e+00 5.9621641149368987e+00 0 1 0
1626 1 5.3043341976851917e+00 2.4852083710331302e-01 9.0108948615303888e+00 0 0 0
1945 1 1.0782545891889503e+01 4.4547589068460045e+00 9.5880031521868947e+00 0 0 -1
2612 1 9.3168514475022128e+00 1.8489385810789445e+00 8.4225831000836724e+00 0 0 0
4175 2 8.1831939379398015e+00 3.8914122434325821e-01 7.8242795834665371e+00 0 1 0
1566 1 5.6539466713913349e+00 3.4928566133561980e+00 8.2613849665787988e+00 0 0 0
2619 1 9.2430532183847482e+00 4.1431313300557555e+00 7.0236871247823460e+00 0 0 0
2528 1 1.1060039881264748e+01 3.8961956510869293e+00 8.5920868809385169e+00 0 0 -1
4123 2 1.0177363785464971e+01 2.6692626880923362e+00 6.2643191639739078e+00 0 0 -1
3975 2 9.9577767550033371e+00 3.5949043293482146e+00 7.2650498536728669e+00 0 0 -1
3761 2 5.9242371065002288e+00 4.6083780431546737e+00 7.0174124827940147e+00 0 0 0
1569 1 4.5169676461080730e+00 2.3599094953242092e-01 7.1572716173123450e+00 0 0 0
1180 1 1.5308458923185504e+00 2.4921016430448444e+00 5.8716653716529246e+00 0 0 0
1482 1 2.0757362529578858e+00 3.4193007786121870e+00 5.2023501381643378e+00 0 0 0
370 1 1.2414782873318035e+00 7.2737718606340129e-01 8.2520721168290425e+00 0 1 0
2106 1 6.4251462295633779e+00 4.4710577732333894e+00 9.6219659674119722e+00 0 0 0
1627 1 6.9334990828002896e+00 3.5920930229704551e-01 8.0924143506115644e+00 0 0 0
1114 1 2.6855290478171034e+00 2.2691610237756810e+00 5.4717846494320774e+00 0 0 0
1187 1 3.3615438988470583e+00 2.3912981447399297e+00 6.2262465997491621e+00 0 0 0
659 1 2.4977091639181519e+00 3.0305894355505716e+00 6.1396062106393012e+00 0 0 0
3713 2 3.1438662566194657e+00 3.0473464107775161e+00 5.6224449143139710e+00 0 0 0
698 1 2.3159414165844900e+00 2.1549440129767343e+00 6.5351077505062438e+00 0 0 0
1177 1 3.7339469661049378e+00 2.3631265166218411e+00 5.2732857973282208e+00 0 0 0
1853 1 4.2909047530554290e+00 1.7860709329382838e+00 6.2964519235273135e+00 0 1 1
3123 1 4.3739827502266699e+00 2.8576453534072210e+00 5.9387422095607318e+00 1 0 0
3577 2 5.1828152720023013e+00 2.3641329187575248e+00 6.1371192234212124e+00 0 0 -1
1676 1 5.0328991741425613e+00 2.1826634281410633e+00 5.3481852480437864e+00 0 0 0
1647 1 5.2334680495629744e+00 1.1642352247197327e+00 5.7569053638147327e+00 0 0 0
4297 2 2.0095055497593135e+00 3.4557716355304230e-01 8.2012884041493610e+00 1 1 1
1438 1 7.9641186775161481e+00 4.4330003784229994e+00 9.0116413189053315e+00 0 0 -1
1153 1 5.8130848161592681e+00 1.8174341112513575e+00 6.4659668995592110e+00 0 0 0
1578 1 1.0002384796977095e+01 4.3243022625226804e+00 7.8828556676480490e+00 0 0 0
998 1 6.6974455084505422e+00 4.2834840819311735e+00 6.7625275008498900e+00 0 0 0
231 1 4.9679738342732227e+00 4.6861319237498806e+00 6.8745302579334577e+00 0 0 0
2610 1 8.3143770751886219e+00 2.0431266639207424e+00 8.3342889957252826e+00 0 0 0
1688 1 7.8265045306527927e+00 3.7398648783782189e+00 5.3776465310230392e+00 0 0 0
2433 1 1.0452905502798465e+01 3.2288028694757780e+00 5.4274623381019245e+00 0 0 0
2123 1 7.9237885662041050e+00 4.9265504435442803e-01 6.0284239756449622e+00 0 0 0
1963 1 7.1581506044834615e+00 1.8868400583862672e+00 5.0522110662415676e+00 0 0 0
3670 2 1.2921925242412724e+00 4.1663651285972714e-01 7.4058168532429081e+00 0 1 0
1115 1 7.1556195566419438e+00 3.3899716937777393e+00 6.0775163789991904e+00 0 0 0
3565 2 7.0760002223519418e+00 3.6115257858743082e+00 4.9735732660002023e+00 0 0 0
1093 1 2.8931941077407508e+00 3.9091566144060126e+00 5.6670628829698817e+00 0 0 0
4130 2 7.3361686372213075e+00 4.4729669240120478e+00 7.3655023464176308e+00 0 0 -1
2088 1 3.8455352251983204e+00 3.6053221294225293e+00 5.3260617512369572e+00 0 0 0
127 1 3.5863996890818619e+00 3.4181086558953240e+00 6.3936849731169625e+00 0 0 0
784 1 6.2633238661312980e+00 5.2825032765587221e-01 7.3391333594537267e+00 0 1 0
1085 1 5.0406181477193872e+00 3.4834486083542204e+00 5.4583286678633076e+00 0 0 0
3016 1 4.4887743940081721e+00 3.9175923147742235e+00 6.2414882446775355e+00 1 0 0
1184 1 5.6247614735011213e+00 4.0024159297746174e+00 6.3843862418225585e+00 0 0 0
1030 1 5.8696450952711068e+00 2.7881392432934504e+00 5.8187787846959873e+00 0 0 0
1504 1 6.2873916869060924e+00 3.7903557314018368e+00 5.5288752319035703e+00 0 0 0
2071 1 7.3777969700326569e+00 3.6603242011545372e+00 7.0905501592977176e+00 0 0 0
1899 1 6.8068145905934845e+00 2.4143784027618195e-01 5.6955589049991984e+00 0 1 0