LAMMPS data file via write_data, version 12 Dec 2018, timestep = 262680

4320 atoms
2 atom types

0.0000000000000000e+00 1.9309999999999999e+01 xlo xhi
0.0000000000000000e+00 1.9309999999999999e+01 ylo yhi
0.0000000000000000e+00 9.6549999999999994e+00 zlo zhi
3.8426899999999993e+00 0.0000000000000000e+00 0.0000000000000000e+00 xy xz yz

Masses

1 1
2 1

Atoms # atomic

4263 2 6.2673984135005556e+00 4.4370948046923990e+00 2.2542409803517018e+00 1 0 0
1029 1 6.2641383309840126e+00 6.8243462859500637e-01 9.9924200622995563e-02 0 0 0
1433 1 9.6130072061466798e+00 4.3293286729091474e+00 1.5659431622526478e+00 0 0 0
2159 1 1.0086135981725068e+01 3.3520859370704317e+00 4.0694646393821117e+00 0 0 0
3622 2 1.0876451145937305e+00 1.2219977301011671e+00 5.4787577365763174e-01 0 0 1
1502 1 8.5554455290818971e+00 4.5237183356447019e+00 1.8689110713527903e+00 0 0 0
1001 1 7.2955842514099434e+00 2.7542070160812369e+00 2.3484214697377870e-01 0 0 0
3205 1 1.4337230831646031e+00 2.1195369896536636e+00 9.1271154744513883e-01 1 1 0
1979 1 9.7189755747029132e+00 2.4551095862239389e+00 2.2760990569716406e+00 0 0 0
851 1 2.0439238252450003e+00 1.3261968501646848e+00 5.7843218687617393e-01 0 1 0
253 1 2.5976962250695452e+00 5.2174280249284000e-01 1.0876754760266760e+00 0 1 0
1190 1 3.0403003171017757e+00 1.5168193595636379e+00 1.0140575383278407e+00 0 0 1
3918 2 2.8106701875689071e+00 1.7811406186117698e+00 1.9341355201585281e-01 0 1 0
30 1 6.3415482092431228e+00 3.7353421571279433e+00 4.0294281441066122e+00 0 0 0
1127 1 2.9202932095600125e+00 9.3846027093160067e-01 9.1541746287936265e-02 0 0 1
1554 1 3.8629623722770772e+00 8.7791742560815955e-01 7.9471100609041556e-01 0 0 1
4116 2 3.4942413172104603e+00 7.4359658672962026e-01 1.5951819930230480e+00 1 0 -1
95 1 4.4202684054432275e+00 3.9564198529212863e-01 1.7506143140388608e+00 0 0 0
2513 1 9.2752652961814999e+00 5.2453737154855662e-01 9.2898682932199783e-01 0 0 0
57 1 7.5945013295464026e-01 1.9929644357409360e+00 4.7597794963216407e+00 0 0 0
870 1 4.9805011491030280e+00 1.3961984859427552e+00 1.4246838821698757e+00 0 1 1
1798 1 5.6570671197866265e+00 7.5455046751058330e-01 9.2179413399101162e-01 0 1 0
1050 1 5.8972415837125958e+00 2.6478742587554192e+00 1.4538638760649980e-01 0 0 0
1711 1 8.9664642465381519e+00 2.6199452830936920e+00 5.2490573475549485e-01 0 1 0
1615 1 6.6343133883657357e+00 9.7818829672298346e-01 1.0771125445859364e+00 0 0 1
1678 1 8.9545639138372337e+00 2.9504022426009211e+00 2.9584560976831846e+00 0 0 1
987 1 5.8225912078528044e+00 1.6178415256495726e+00 3.5950605125188179e-01 0 0 0
1098 1 8.1705547677964105e+00 1.8078381329332163e+00 1.4143274477233797e-01 0 0 1
1359 1 7.2912073065365686e+00 9.1958030789852896e-01 2.4688861818010593e-01 0 1 1
3468 2 7.6361834104474982e+00 1.1147327566537428e+00 1.1154492935944522e+00 -1 0 1
1474 1 1.0375154272656484e+01 4.5547825569481892e+00 3.2885949306492459e+00 0 0 0
1470 1 8.9406241430452429e+00 2.7115991786789415e+00 1.5530166739538001e+00 0 0 0
1117 1 4.3953926478257976e+00 3.9439582921138068e+00 1.3102263943734530e-01 0 0 1
3137 1 5.1757752649031619e-01 3.0889639089546472e-01 7.1301285981017570e-01 1 0 1
115 1 1.4998794896662637e+00 7.2671502634762308e-01 1.1542198874453551e+00 0 0 0
986 1 1.2625122210953101e+00 4.6904198361342342e+00 4.7461405271654602e+00 0 0 0
254 1 1.0635788773524897e+00 3.1531901613242557e+00 1.2201184271594947e+00 0 1 0
3080 1 6.7826007778157682e-01 2.9172269031923497e+00 3.1956162599424629e+00 1 0 0
1160 1 8.4307972457925544e+00 6.4099247281490768e-01 1.5783550429291258e+00 0 0 0
3599 2 1.4832772751254828e+00 3.8476308953037419e+00 8.5145282297878278e-01 0 0 0
622 1 2.0113188332201224e+00 3.0356505850744147e+00 7.9814706318946971e-01 0 0 1
3750 2 2.3670802748890205e+00 2.1438656245426699e+00 8.7458250739825338e-01 0 0 1
34 1 3.1010321925715609e+00 2.5036666796931359e+00 4.9717520317948061e-01 0 0 0
1065 1 2.7272046327349324e+00 2.7723597765654810e+00 1.4191405554271426e+00 0 0 0
968 1 4.2001109642451118e+00 2.3930129735633900e+00 6.5393929215928237e-01 0 0 1
3708 2 4.0625646689762203e+00 1.6598669387824678e+00 1.0889422511130602e+00 0 0 0
1166 1 3.8211318923200954e+00 3.1910492083934949e+00 1.4390609784542210e+00 0 0 1
3768 2 4.0835840856890178e+00 3.2346406174058786e+00 5.2849722950695333e-01 0 1 0
3676 2 8.5325997650380323e+00 1.2063340456579814e+00 2.3433896782452006e+00 0 1 1
3757 2 5.9018347467453465e+00 1.5386718888024609e+00 1.2241561622028727e+00 0 0 1
1764 1 5.2781609363124931e+00 2.3018544146767672e+00 8.5781357968096317e-01 0 1 0
1617 1 6.3776967199641357e+00 2.2300156948267325e+00 1.0168555140097015e+00 0 0 1
2174 1 4.6213333957432923e+00 1.6834301929840056e-01 5.5378528545919348e-01 0 1 0
1499 1 7.3179978113997999e+00 1.8296361797829999e+00 8.2489565190485425e-01 0 0 1
1544 1 9.1909880636763646e+00 1.5963438658224509e+00 6.7696968985570616e-01 0 0 0
1946 1 1.0281802956818330e+01 4.0605147736832228e+00 2.3985980591924667e+00 0 0 0
1965 1 9.2329156437608457e+00 1.3812022893961970e+00 1.6930552839464998e+00 0 0 0
1145 1 8.8033196026249598e+00 4.3611904917911879e+00 4.3621105530107904e+00 0 0 0
964 1 1.0093350643129693e+01 3.2613694196998444e+00 1.7216010644394726e+00 0 0 0
4133 2 1.0307497909484596e+01 4.7806520151695375e+00 4.1003448140203096e+00 0 0 0
1218 1 3.8962046718599108e-01 1.2658972714193819e+00 1.1312139678699606e+00 0 1 0
3793 2 6.9444088653219618e+00 1.4581181674207427e-01 3.0761178321062871e-01 0 1 0
171 1 1.3840443156108049e+00 4.6195040957052580e+00 1.1445947505474277e+00 0 0 1
1513 1 7.1390585459413396e+00 4.3986997265195624e+00 9.2646603922391402e-01 0 0 0
952 1 8.2750373792444183e+00 1.8197842831247404e+00 1.2122385154802673e+00 0 0 0
656 1 3.2752559357494841e+00 3.5263372158415724e+00 5.2200118241462667e-01 0 0 1
1488 1 6.4624939350757682e+00 4.5444952183468503e+00 7.0860803603090385e-03 0 0 0
717 1 2.2780489323674327e+00 4.1670375456701656e+00 7.7265938919074473e-01 0 0 1
1783 1 4.6056677900838965e+00 2.8233302581333974e-01 2.9487962901504696e+00 0 1 0
668 1 2.9427872305651883e+00 3.7545172268005360e+00 1.5199738109771017e+00 0 0 0
2201 1 8.6718676503518708e+00 3.7580268093938796e+00 1.1105075404982616e+00 0 1 0
1472 1 9.1693568817753395e+00 3.5450988670394290e+00 2.0184863506564756e+00 0 0 0
1019 1 4.7677220505372331e+00 3.3872123560362737e+00 1.0328065597459599e+00 0 0 0
1198 1 4.0144761226830754e+00 4.1578694120330715e+00 1.0538172405786013e+00 0 1 0
3627 2 4.8697106436010742e+00 4.3467773213123309e+00 9.1890869623373939e-01 0 0 1
1870 1 8.2812270263660022e+00 8.2686174435219728e-01 5.2490618007652878e-01 0 1 1
3503 2 8.0970819475481779e+00 1.8405777284308880e+00 3.8534756707938049e+00 -1 0 2
567 1 5.8759567005920825e+00 3.1362204399231701e+00 1.1687338347317890e+00 0 0 0
669 1 5.5839873624121594e+00 4.1286377589065415e+00 1.4598224314261596e+00 0 0 1
3865 2 6.2897010127251951e+00 4.2157708925937287e+00 9.1038362021179953e-01 0 0 0
1051 1 5.5348196805724719e+00 3.8533509056250086e+00 4.0784192100939287e-01 0 0 0
1137 1 9.4456165489538755e+00 4.6793499536235137e+00 2.7331562309296449e+00 0 0 1
3588 2 2.5275639009543918e+00 3.8198246659158990e+00 3.6732219509625965e+00 0 0 0
3771 2 9.3601303018901856e+00 3.1748981336308626e+00 3.7610507340409769e+00 0 1 -1
503 1 8.0158501573206387e+00 2.7897463842097858e+00 1.0526262006894984e+00 0 0 0
1506 1 7.0655648962443349e+00 3.0112502836644435e+00 1.3073387109542087e+00 0 0 0
1564 1 7.7735828850186381e+00 3.7240334042556018e+00 4.9279133981208617e-01 0 0 1
1572 1 7.7522423740067010e+00 3.8747261431000584e+00 1.5896151191656966e+00 0 0 1
1671 1 9.5858340978866696e+00 3.4129119547997693e+00 8.5526638236735242e-01 0 0 1
2141 1 8.0968358260161892e+00 4.7197376379255287e+00 9.0263516681505607e-01 0 0 1
474 1 9.6623724221356444e-01 1.9829650552214198e-01 3.8462876074132386e+00 0 1 0
94 1 1.7670327340678855e+00 4.3516542620569337e-01 3.2327139852826225e+00 0 0 0
2145 1 9.6404885505198177e+00 2.3130630282344029e+00 3.5485033418902674e+00 0 0 0
2468 1 9.7957844338438171e+00 2.2787050789628065e+00 1.1894452156835971e+00 0 0 0
520 1 1.0602647953549917e+00 1.4953407069338838e+00 1.8514962808100655e+00 0 0 0
2108 1 6.9680870040069767e+00 3.1632803940388050e+00 4.7519785639230685e+00 0 0 0
715 1 1.2534049116631818e+00 1.2716076929414790e+00 3.0162505068687055e+00 0 0 0
4042 2 3.2723992101462307e+00 1.0142015690201858e+00 4.7192379977497003e+00 0 1 0
1000 1 2.1437323530865626e+00 1.6389744221057638e+00 1.5690017633774274e+00 0 0 0
4214 2 1.7622970915837628e+00 1.7360223712280565e+00 2.3641581690681042e+00 1 0 0
817 1 1.8584777816976428e+00 7.7498142695708894e-01 2.1738266695936490e+00 0 1 0
159 1 2.8518663414732734e+00 1.1396302516027794e+00 1.9898733810051636e+00 0 0 0
992 1 2.3021484636396501e+00 1.3304952892363475e+00 2.8912912800808979e+00 0 0 0
966 1 2.7818850362495064e+00 3.9539144769373485e-01 2.8649428705443976e+00 0 0 0
1134 1 3.3424270343372697e+00 1.5743639343622342e+00 2.8232384090160236e+00 0 0 1
1040 1 4.0667841442630248e+00 1.4132228525789732e+00 1.9033986730658210e+00 0 0 0
1358 1 3.7315595099811292e+00 6.2146850603607784e-01 2.4444865959026951e+00 0 1 1
1621 1 7.7976971198678591e+00 4.3051591967964251e+00 3.3168082489585262e+00 0 0 0
3878 2 4.6919067587627445e+00 9.5665399452887023e-01 2.3931774820628533e+00 0 0 1
631 1 4.2825134227023778e+00 1.2594933946818856e+00 3.0799104430729525e+00 0 0 0
3756 2 6.0987883123961248e+00 5.0021724955454139e-01 1.6597322114331756e+00 0 0 1
1357 1 5.3461197091752588e+00 3.4134557286581746e-01 2.1735856641749152e+00 0 1 1
575 1 5.3444155017832529e+00 9.6644033286506292e-01 2.9962881035434554e+00 0 0 0
722 1 5.9060638099342242e+00 1.2425078142805319e+00 2.0292759979096142e+00 0 1 0
1147 1 6.2584986185659730e+00 5.4275566974793854e-01 2.7916758659625049e+00 0 0 1
1351 1 6.9213626625612426e+00 6.3232087911708346e-01 2.0101502721634361e+00 0 1 0
3775 2 7.1045698914423729e+00 3.8393224227446515e-01 2.9320721664433793e+00 0 1 0
2965 1 8.3406305477371290e-01 3.9209882883001330e+00 3.1199008999934503e+00 1 0 0
1457 1 9.4505325378972032e+00 4.0442203278380022e+00 3.5334780366212102e+00 0 0 0
1689 1 9.5520460615694631e+00 2.3135487383948874e+00 4.6880457741164134e+00 0 0 0
3492 2 1.2676324471073959e+00 2.1334105193595285e-01 2.5628446599421855e+00 0 0 0
386 1 5.0963883349714401e+00 8.4358255151651851e-02 3.9527318496690818e+00 0 1 0
767 1 7.3592694348195504e+00 2.2982624773269719e-01 1.0551506099306596e+00 0 1 0
3847 2 8.7298857273454686e+00 4.6528702762575955e+00 3.3689039952227242e+00 0 0 0
431 1 7.9563807901993944e-01 2.1266544010388939e+00 2.5399317526985672e+00 0 1 1
558 1 1.5996202870810610e+00 2.5340751846232270e+00 1.9051637433622957e+00 0 0 0
1913 1 4.0633216568623505e+00 1.2194094022832682e+00 4.7737637828074506e+00 0 1 0
83 1 1.5611290514614087e+00 3.2671205936163883e+00 2.5667377710804238e+00 0 0 0
166 1 1.6545704607377461e+00 2.3128152313829990e+00 3.0486283898540725e+00 0 0 0
1376 1 2.5479802607846502e+00 2.2577695270981768e+00 2.2702919885078057e+00 0 1 0
3606 2 2.3728369633134072e+00 3.2076049909610531e+00 2.1173073512370082e+00 0 0 0
2941 1 3.2751223085212438e+00 3.0209470066708857e+00 2.3049146008088952e+00 1 0 0
3608 2 3.1499566065659357e+00 2.3879347757845988e+00 2.8528039085066288e+00 0 0 0
3128 1 2.6064701563617731e+00 3.1403241272077991e+00 3.0698111624498532e+00 1 0 0
555 1 3.5104453558704836e+00 2.1537664170016093e+00 1.6884995990191101e+00 0 0 0
505 1 4.5985880367832177e+00 2.3832269826768351e+00 1.6383135198485830e+00 0 0 0
663 1 4.0046394001985064e+00 2.2653802952670761e+00 2.6279700578081613e+00 0 0 0
3686 2 4.1860887379344813e+00 2.9848813234624365e+00 2.1684614039846219e+00 0 1 0
1446 1 4.9285677364051477e+00 2.8696592582014300e+00 2.6622327751538069e+00 0 0 0
568 1 5.0128020930968056e+00 1.7636236164305772e+00 2.4323422491066142e+00 0 0 0
3703 2 5.2266260404948808e+00 3.0480277049216751e+00 1.7188023612086520e+00 0 0 0
3533 2 6.2697965032251242e+00 1.4596529536718585e+00 2.7914487881253454e+00 0 1 0
1462 1 5.6480328652363792e+00 2.3092875859697686e+00 1.8434678636827755e+00 0 0 0
1511 1 5.9086480861065613e+00 2.2401329086992243e+00 2.8790730002533094e+00 0 0 0
1561 1 6.5043418523165295e+00 2.8576334990506833e+00 2.1391909164529448e+00 0 0 0
2197 1 7.1481960093269468e+00 1.2294153138845971e+00 2.8268564890139696e+00 0 1 0
566 1 6.7939607134659088e+00 1.8272594386972467e+00 1.8874871454164444e+00 0 0 0
1437 1 7.5910849079688427e+00 2.4586906722482964e+00 1.9645042660200296e+00 0 0 0
2101 1 7.6692696824686442e+00 1.3632703529560748e+00 1.9218617272260370e+00 0 0 1
3946 2 7.5994057786921454e+00 2.0109720991998308e+00 2.6821145874249517e+00 0 1 0
1721 1 6.9007724336315572e+00 2.4676400186939840e+00 3.0066523600372164e+00 0 1 0
2421 1 7.9112692423158384e+00 2.5900293403222054e+00 3.2517840016979984e+00 0 0 0
2689 1 9.2880641860305033e+00 1.5570931305872604e+00 2.7754677394463458e+00 0 0 0
1607 1 9.0805445980886734e+00 4.6318533599502043e+00 5.1072581873656631e-01 0 0 1
1191 1 5.3391198653608178e+00 4.6128090357333775e+00 3.8607090934194783e+00 0 0 0
1696 1 7.7713866281811095e+00 4.0415257724786189e+00 4.4696210416723954e+00 0 0 0
1022 1 3.2769439348207428e+00 4.6351649379804476e+00 2.8817985194743732e+00 0 0 -1
2037 1 7.0521017558389909e+00 4.5507148182551083e+00 2.6148156359591166e+00 0 0 0
615 1 1.9180588714243338e+00 3.6939701446607174e+00 1.6247624160329774e+00 0 0 1
3028 1 1.0079430394971740e+00 4.0394639132032175e+00 1.9859427632658304e+00 1 0 0
3610 2 1.1849813512323399e+00 4.6040829361139863e+00 2.7421394219968103e+00 0 0 0
1491 1 3.6889738521277731e+00 1.8677255373763249e-01 4.7476805861458251e+00 0 0 -1
2962 1 6.1868263224342057e-01 3.1030128044254455e+00 2.1770341095197776e+00 1 0 0
1071 1 6.6867288354196850e+00 1.4565737308831210e+00 4.6316327064278022e+00 0 0 -1
1039 1 3.7221905940320443e+00 4.0987362156505247e+00 2.1444968740835977e+00 0 0 0
4238 2 2.3695097424153237e+00 4.4215378887708763e+00 1.5581156721082861e+00 1 0 0
3619 2 3.3427685298480543e+00 3.6881739106111415e+00 2.8314234043592665e+00 0 0 1
586 1 2.5714483874122678e+00 3.9824415872640082e+00 2.5063604724428727e+00 0 0 0
2132 1 9.6670364978617851e+00 6.7926916446427377e-01 3.7785983616081578e+00 0 0 0
1682 1 7.2749574247037696e+00 3.3563629170469005e+00 3.6540776062249800e+00 0 0 0
1440 1 4.1545277658199895e+00 3.5375785539029785e+00 2.8784136020404607e+00 0 0 0
664 1 4.7260255184530884e+00 3.7655625520038116e+00 1.9920879594215499e+00 0 0 0
550 1 4.4141747936112132e+00 4.6394944146176451e+00 2.7516217877867661e+00 0 0 0
655 1 5.4705337907707730e+00 4.4349960086285254e+00 2.5137448782381338e+00 0 0 1
994 1 5.2839900579047638e+00 3.6893053525454160e+00 3.2280373206108157e+00 0 0 0
1428 1 6.6481703917578745e+00 3.8864697514037747e+00 1.7679382915302790e+00 0 0 0
1613 1 9.8931244971539787e+00 4.2449619406714394e+00 4.5978104229257664e+00 0 0 0
534 1 6.2844689656046597e+00 3.3158751491814904e+00 3.1055464238286539e+00 0 0 0
1271 1 5.6906854230409838e+00 3.4338775353417765e+00 2.2965980214207002e+00 0 1 0
21 1 2.1154787043865415e+00 2.2293886571482684e+00 1.1937904938129911e-02 0 0 0
3838 2 6.9228468310727251e+00 3.9798905315623636e+00 3.2554922949629064e+00 0 0 0
3127 1 3.3463440344778390e+00 3.9091302769709344e+00 3.6978459119233924e+00 1 0 0
1072 1 8.2583752976581497e+00 3.1767271739162575e+00 2.2037600385021126e+00 0 0 0
1535 1 7.2821279238901155e+00 3.4100792952492243e+00 2.5237456120392587e+00 0 0 0
3964 2 7.9270995481659945e+00 3.4792337921423302e+00 3.0576073466838638e+00 0 1 0
1858 1 7.9754948318463486e+00 1.3691341553013820e+00 4.5733254939016570e+00 0 1 0
1103 1 8.7269013496113761e+00 5.6276830264907030e-01 4.3249180827277804e+00 0 0 0
2076 1 8.1498446066569397e+00 1.4981016296295173e+00 3.0769977979387630e+00 0 0 1
3040 1 3.6286388278831998e+00 4.6516474009238662e+00 1.5435593854893445e-01 1 0 0
570 1 5.4017766086009411e-01 4.9210192371945694e-01 2.9659245832261218e+00 0 0 0
513 1 4.7269034869071849e+00 4.5145627357956739e+00 4.7277820312069121e+00 0 0 0
599 1 3.0188319899073681e+00 5.2099491978686185e-01 3.9785200064625807e+00 0 0 0
3121 1 9.0596886130758918e+00 3.3001622089924370e+00 4.6735791272024336e+00 0 0 0
194 1 8.6665408139599009e-01 9.2078965794486412e-01 4.5749454611460862e+00 0 0 0
3855 2 7.7080945598287443e-01 1.0808457821417186e+00 3.7296984112694718e+00 0 0 0
3192 1 9.3113558710547473e-01 2.0113465048545378e+00 3.6872714771268686e+00 1 0 0
1538 1 8.7570940613773640e+00 5.5087661401539811e-01 3.2709439328859942e+00 0 0 0
1880 1 8.6639194321200428e+00 4.0397543491761105e+00 2.8227145158843894e+00 0 0 0
1584 1 1.6738712885937914e+00 1.2434632103955061e+00 3.9756560520427731e+00 0 0 0
3464 2 2.5674512281577684e+00 1.1944517301541893e+00 3.6852265622110916e+00 0 0 -1
652 1 2.6114166160388246e+00 1.6163164096523370e+00 4.4418100960612685e+00 0 0 0
1622 1 8.3792250198424476e+00 3.5043492336399527e+00 3.7709257616443934e+00 0 0 0
991 1 7.9272226569564825e+00 5.3918767096376241e-01 2.5405847101729786e+00 0 0 0
4264 2 3.4242450970673808e+00 7.6352602478635090e-01 3.2336862671160884e+00 1 0 1
1054 1 4.0151258730952737e+00 5.1655769432080678e-01 3.8042988200796857e+00 0 0 0
481 1 3.4836629250901288e+00 1.4664108441959134e+00 3.9113567656203796e+00 0 0 0
235 1 4.9337084902289075e+00 1.1217466762117385e+00 3.9171154791353504e+00 0 0 0
887 1 1.9695345317831476e+00 3.3060627252293523e-01 4.2947390874044169e+00 0 1 0
3856 2 5.9070998607798968e+00 4.5511990606831032e-01 3.5670094813949329e+00 0 0 0
2360 1 5.8478641468079928e+00 7.9996814096095892e-01 4.4271487627862331e+00 0 1 0
2064 1 1.1467697503522940e+00 2.7689347389979484e+00 1.3412819054055222e-01 1 0 1
3587 2 7.8162804904695067e+00 4.2375873726760886e+00 2.4305700095501042e+00 0 0 0
1950 1 7.7793149446064325e+00 5.9241290898309140e-01 3.5517215724388862e+00 0 0 0
4029 2 7.3003493387413032e+00 8.8374864642827355e-01 4.3701781670823534e+00 0 1 0
580 1 6.7299900755017008e+00 6.2242246288649028e-01 3.6790644752262067e+00 0 0 0
4228 2 1.9873307273790548e+00 1.0693448846759977e-01 1.6324331386697135e+00 1 0 0
4129 2 9.4948432823938838e+00 3.8120596097064405e+00 2.7129035660130825e+00 1 0 1
1425 1 8.7227244510646926e+00 2.5507753542373419e+00 3.9762281663979602e+00 0 1 0
17 1 7.5082808809435797e-01 4.9015766469233352e-01 1.8853385039637778e+00 0 0 0
1242 1 4.6329625335332905e+00 1.5034114952104314e+00 3.2195860195660392e-01 0 1 0
906 1 8.5544700606331805e+00 2.1131328089388552e+00 2.3075073972145064e+00 0 1 0
636 1 1.8255241041735935e+00 4.6991329084630635e+00 2.1822180119291166e+00 0 0 1
3772 2 2.1695510485595264e+00 4.7188006737125898e-01 2.9912493255785289e-01 0 1 1
548 1 5.8540802409949206e+00 3.0074388562115000e+00 4.6493416811612480e+00 0 0 0
2054 1 9.8878358139813578e+00 4.1388864416953064e+00 4.4671790109002393e-02 0 0 0
3480 2 1.0754103229129619e+00 2.6857033186477763e+00 4.3125793899007325e+00 0 0 0
700 1 9.8567080263763596e-01 3.5262624249856427e+00 4.3298461019560559e+00 0 0 0
288 1 1.6795853094740709e+00 3.1858814670851805e+00 3.7054381193750690e+00 0 1 0
4208 2 1.9668321682627254e+00 3.1485480072291070e+00 4.5546482938765118e+00 1 0 0
543 1 1.8419928550311890e+00 2.2828098821863154e+00 4.1916075991731869e+00 0 0 0
1165 1 2.7109855989185827e+00 2.1472851039965279e+00 3.5635407235716845e+00 0 0 0
802 1 2.7643397326532222e+00 3.1743037864011705e+00 4.1822496936471021e+00 0 1 0
572 1 3.5842629702174627e+00 2.7939631513825511e+00 3.3977849289443061e+00 0 0 0
1167 1 3.4750985684212363e+00 2.4473035575132789e+00 4.4273730607731450e+00 0 0 0
3688 2 2.8790431140635349e+00 4.1058282986994428e+00 4.4528050488973259e+00 0 1 0
3719 2 3.7054621531107976e+00 3.2197941105905574e+00 4.1383051033745168e+00 0 0 -1
4119 2 3.9585091918741355e+00 2.0197028134376036e+00 3.5371480151759553e+00 0 0 0
1007 1 4.4809368061473371e+00 2.0855039065573946e+00 4.2588070729041938e+00 0 0 0
2164 1 4.5222127781369990e+00 2.9652493649760183e+00 3.7390135662614967e+00 0 0 1
3884 2 5.0799827073992123e+00 2.6906037005442567e+00 4.3418475776719578e+00 0 0 1
1062 1 5.0218035134292878e+00 2.0588405123175315e+00 3.3714969073692109e+00 0 0 0
1194 1 6.0903587692709245e+00 1.4370893522870385e+00 3.6065773220325994e+00 0 1 0
814 1 5.6077385051012074e+00 1.9827334798753207e+00 4.3555120783351065e+00 0 1 0
1081 1 5.6218390228533615e+00 2.8368367246019353e+00 3.6827291068354504e+00 0 0 1
860 1 6.5496273812781922e+00 2.4295941168598514e+00 3.9916446909806620e+00 0 1 1
3460 2 8.7395533249926434e+00 2.1725775873918076e+00 3.1331200526339900e+00 -1 0 0
2250 1 8.8715595369179834e+00 1.4494020557397176e+00 3.8205207044244935e+00 0 1 0
2098 1 6.5958494019798763e+00 3.5149214146933558e+00 4.8550688667813569e-01 0 0 1
1573 1 7.2537863837551946e+00 1.6569986194419193e+00 3.7218695737898209e+00 0 0 0
537 1 7.6854063369641210e+00 2.5232625420032728e+00 4.2817902681764952e+00 0 0 0
508 1 6.1986460978036053e+00 4.4821020005810883e+00 3.1984300689506955e+00 0 0 0
2084 1 8.8569202910844140e+00 3.7173901100890046e+00 1.1084643770773805e-01 0 0 1
2063 1 1.0029594608005644e+01 3.1563743344839441e+00 3.0768744612750258e+00 0 0 0
124 1 5.1610264884547261e+00 3.6193791613442929e+00 4.2342867989353286e+00 0 0 0
177 1 1.9107331526840081e+00 4.1998488931196487e+00 3.2011963523349758e+00 0 0 0
1505 1 4.4097447826270759e+00 4.0683100858402454e+00 3.7104352299441792e+00 0 0 0
232 1 2.0072015807747281e+00 3.9404869479415017e+00 4.3629364525224288e+00 0 0 0
878 1 7.8016504779459961e+00 2.2210454423637202e-01 4.5228717806570486e+00 0 1 0
4148 2 1.3172549211545901e+00 4.1942769664648241e+00 3.8264681586717013e+00 1 0 0
3590 2 6.1877970637000157e+00 4.6036654151003100e+00 4.1292408730287402e+00 0 0 -1
1519 1 9.1641058625740079e+00 5.4799522903243991e-01 2.2942294457707582e+00 0 0 0
4177 2 4.9445241470663550e+00 1.4533542452096773e+00 4.7810711141050097e+00 0 1 0
733 1 4.8794129197553593e+00 2.9736038403669376e+00 4.2074565908193577e-02 0 1 0
955 1 7.0263586078659195e+00 4.6592677451591458e+00 3.9008133500250146e+00 0 0 0
137 1 1.3490318644578143e+00 5.9903565636604850e-01 6.9874916101406059e-02 0 0 1
559 1 2.6488615161870559e+00 4.7263628756798060e+00 3.9099413394627796e+00 0 0 0
628 1 6.8190929089647092e+00 4.3194915820985544e+00 4.8228415788481751e+00 0 0 0
2996 1 3.2278870023787634e+00 4.6993486124821295e+00 1.2088881854709699e+00 1 0 0
1906 1 6.7121645035461386e+00 2.8656956164717506e-01 4.7273861186736079e+00 0 1 0
967 1 4.3560149322551389e-01 2.0746423482751868e+00 4.6749059209876143e-01 0 0 0
1526 1 4.3653812976468744e+00 3.0417066139942239e+00 4.7325187660950716e+00 0 0 0
574 1 3.7206058713592789e+00 3.9135265614143391e+00 4.6780324575580554e+00 0 0 0
1625 1 3.2426771214467851e+00 4.8270435225352992e+00 4.7085372291060201e+00 0 0 0
10 1 3.4924787967333004e-01 1.0714513690691134e+00 7.6825621137846550e-02 0 0 1
2100 1 1.0088816340390771e+01 3.8740678473500485e+00 6.1228507325998143e+00 0 0 0
231 1 6.1947332388796550e+00 4.7504660043895637e+00 6.8915528605501937e+00 0 0 0
617 1 6.1265368034229102e+00 4.3505470073984318e+00 8.0803601616656859e+00 0 0 0
1171 1 9.1921902561390390e+00 2.8781049655306004e+00 5.6289664586880939e+00 0 0 0
1069 1 3.1772125352254079e+00 1.6757776308317389e+00 5.3118975435868228e+00 0 0 0
4078 2 9.1593125545717591e+00 8.8023961955834529e-01 5.6810738950826165e+00 0 1 0
3545 2 9.8371554131620931e-01 1.5058465646082211e+00 5.4518665530282364e+00 0 1 0
1148 1 1.3929597476050330e+00 8.1637992088341313e-02 8.6137589885534016e+00 0 0 0
4220 2 8.6455200611950129e+00 1.1960987167303163e+00 7.3035788897955296e+00 0 0 -1
3728 2 9.9622688503763861e+00 3.1257973107250323e+00 7.8905259957157439e+00 0 0 0
1628 1 8.5907206062836341e+00 4.1863954078922463e+00 8.1858657513897199e+00 0 0 0
706 1 1.6954040420730991e+00 1.1120605450947967e+00 5.9669782675483862e+00 0 0 0
1865 1 5.8656982739978014e+00 4.6044637639713046e-02 8.8836439952955608e+00 0 1 0
3513 2 2.4037053296189503e+00 1.5906694799816963e+00 5.5226781830047686e+00 0 0 0
842 1 2.4411301065949891e+00 8.1965849539416491e-01 5.1025734270971004e+00 0 1 0
913 1 2.7831152388550651e+00 1.2771676142722532e+00 6.2053751031514581e+00 0 1 0
517 1 5.2462317206231779e+00 4.5815821747300198e+00 9.2369600199130826e+00 0 0 0
1904 1 8.3300525461808519e+00 1.4965759879976441e+00 5.6935097182492846e+00 0 1 0
3611 2 4.1916672145854150e+00 5.3941749764521685e-01 5.3592304538617901e+00 0 0 1
3752 2 3.9379705813308705e+00 1.3715174548982034e+00 5.7049689582815031e+00 0 0 0
526 1 3.3811916229514418e+00 7.3192683214586329e-01 5.5567121754524988e+00 0 0 -1
1080 1 4.0936921040126215e+00 8.0240985832245548e-01 6.3316021975105636e+00 0 0 0
1514 1 6.6815630133283053e+00 2.8854047178243456e+00 9.0907680653126377e+00 0 0 -1
1128 1 4.7756370551620950e+00 1.3315157009803700e+00 5.6647389577908811e+00 0 0 1
1557 1 9.6330771841358036e+00 3.9390691758458094e+00 8.0646426246000118e+00 0 0 0
2053 1 9.1595990647914771e+00 1.8913814928019776e+00 6.3754785624605841e+00 0 0 0
1683 1 5.7769183507738795e+00 7.2275015660808817e-01 6.1087512942559918e+00 0 0 0
1199 1 5.7335094227302372e+00 1.4064808670228424e+00 5.2271726988448579e+00 0 1 0
3749 2 8.3360126569438862e+00 3.3096710165196899e+00 8.2832769701251827e+00 0 0 0
4122 2 6.3859761918345734e+00 8.6022821685710438e-01 5.2236582216128609e+00 0 0 0
1349 1 6.7298918700340655e+00 3.2963346013253381e-01 5.9551744311535684e+00 0 1 0
889 1 7.3826142952663680e+00 8.6216170800873437e-01 5.2513475989177634e+00 0 1 0
1021 1 8.2527777499716439e+00 2.8376921091094260e+00 9.3888960762954135e+00 0 0 0
1654 1 7.5199347306689921e+00 1.1322655155112960e+00 6.3312425571590092e+00 0 0 0
1614 1 5.1930175764141779e+00 3.1589000367019840e-03 8.1149763893421554e+00 0 0 0
3814 2 1.2888555047253314e+00 4.0409767622429854e-01 6.3344479341590505e+00 0 1 0
974 1 8.5279373463368842e+00 7.2242223955557711e-02 8.6247913249682941e+00 0 0 -1
1907 1 7.8758428697129483e+00 1.4937517859796509e-01 6.3332899412060124e+00 0 1 0
3881 2 1.0090988684415759e+01 2.3745987798159902e+00 9.0321928888960112e+00 0 0 0
1566 1 6.7862277418551864e+00 3.5779454920498170e+00 8.2766688444272596e+00 0 0 0
110 1 7.5007567060370506e-01 2.2817103935565481e+00 5.8224464456278753e+00 0 0 -1
2057 1 6.8848563811965118e+00 7.1717565642195405e-02 7.0320231759896705e+00 0 0 0
695 1 1.8364422324268967e+00 2.1286011363366026e+00 5.9399253489131629e+00 0 0 0
602 1 1.4338152063678227e+00 2.6855738049710589e+00 5.0343081332083512e+00 0 0 0
2586 1 1.3710582054085414e+00 3.0203549408439301e+00 6.2219313409913894e+00 1 0 0
4302 2 2.2405115830569575e+00 2.9746642671848074e+00 5.8686761219495169e+00 1 1 0
1180 1 2.8595815739891126e+00 2.3290528352499611e+00 6.0619675471583383e+00 0 0 0
1482 1 3.4674440785811744e+00 2.9997406091159959e+00 5.2594395214884777e+00 0 0 0
370 1 2.7765921743160784e+00 3.3120663012954960e-01 8.0038342083290761e+00 0 1 0
675 1 2.9581230499022881e+00 3.3641633475675281e+00 6.2199781768976594e+00 0 0 0
676 1 2.5274220077903071e+00 3.5125736799650973e+00 5.2006847213791785e+00 0 0 0
1114 1 4.1190748891613724e+00 2.1472362447257147e+00 5.3417477618288070e+00 0 0 0
1187 1 4.7595614575503102e+00 2.3289265433252484e+00 6.2136752772355468e+00 0 0 0
659 1 3.7991572451875628e+00 2.7692214410588405e+00 6.1796704754931318e+00 0 0 0
3713 2 4.4522925822881589e+00 2.9371775356848495e+00 5.6062377806044381e+00 0 0 0
698 1 3.7255063726108419e+00 1.7987294613368014e+00 6.4367836233208795e+00 0 0 0
1177 1 5.1113508496507354e+00 2.3787468612944176e+00 5.2290759029160014e+00 0 0 0
1853 1 5.6657448844777232e+00 1.9276274689656705e+00 6.1854464255158570e+00 0 1 1
3123 1 5.7629359136783069e+00 2.8806114689126083e+00 5.9034676374252184e+00 1 0 0
3577 2 6.6961543188323835e+00 2.3640063452552944e+00 6.1101784680946567e+00 0 0 -1
1676 1 6.4722917818666676e+00 2.3961038114179587e+00 5.2252709087292679e+00 0 0 0
1647 1 6.6096932253037517e+00 1.5597992361583222e+00 5.7791031022672357e+00 0 0 0
3707 2 6.9341821016103182e+00 1.1777870318416410e+00 9.0754643197356994e+00 0 0 -1
592 1 4.3964873861570747e-01 5.3309398199704894e-01 8.7124568932071877e+00 0 0 -1
1153 1 7.4117419293589126e+00 2.3893590915640113e+00 6.6451198874371427e+00 0 0 0
4284 2 9.3531706597777937e+00 3.1577628308561406e-01 6.9558347210904561e+00 0 1 0
998 1 8.0425107760115715e+00 4.5336178500737834e+00 6.6051779660134633e+00 0 0 0
1836 1 6.5355639217318737e+00 1.0124657156582365e-01 8.0371482989050627e+00 0 1 0
2610 1 9.6102400855948034e+00 2.3803846997906506e+00 8.3300752044381881e+00 0 0 0
1688 1 9.2030486736657586e+00 4.1092283140992336e+00 5.3620159117235531e+00 0 0 0
1079 1 1.3877093467268464e+00 3.6429844628697334e+00 5.3427925581665825e+00 0 0 0
223 1 1.2220618534269032e+00 4.5579373062130024e+00 5.8523400004670831e+00 0 0 0
1133 1 2.1314591670260024e+00 4.0434391251235908e+00 6.0125337333389668e+00 0 0 0
4130 2 8.5189345010179451e+00 4.6940501243981343e+00 7.3787364211173756e+00 0 0 -1
1115 1 8.4340631797766221e+00 3.5503602529183622e+00 5.8936642327030011e+00 0 0 0
601 1 3.1107177259238568e+00 4.3129756978627158e+00 5.7707680374032586e+00 0 0 0
1093 1 4.0008834586047479e+00 3.7369023610171030e+00 5.7068401275336988e+00 0 0 0
1814 1 9.5813204913415166e+00 3.7613504551126759e-01 8.7062488684291743e+00 0 1 0
2088 1 5.1158417499339768e+00 3.4796175073878577e+00 5.3389797259950464e+00 0 0 0
127 1 4.8423383629030257e+00 3.3523539032104166e+00 6.4944367951190145e+00 0 0 0
784 1 7.8292320278247152e+00 7.0335849084563806e-01 7.2968550187680687e+00 0 1 0
1085 1 6.3643539036580599e+00 3.6190963757736321e+00 5.4970115056828028e+00 0 0 0
3016 1 5.9058051592123455e+00 3.9246613895597053e+00 6.3546712824909779e+00 1 0 0
1184 1 6.9440547101146457e+00 4.0538566193058951e+00 6.3337742678626112e+00 0 0 0
1030 1 7.2345054260105242e+00 3.0582420075597825e+00 5.8364357481904117e+00 0 0 0
1504 1 7.6449648753707695e+00 4.0233325414271368e+00 5.4914570113793184e+00 0 0 0
2071 1 8.6139528500238960e+00 3.8725385701639681e+00 7.1622628080233595e+00 0 0 0
1438 1 9.1245123707077607e+00 4.4202796998525455e+00 9.0136374159339017e+00 0 0 -1