LAMMPS data file via write_data, version 12 Dec 2018, timestep = 267960

4320 atoms
2 atom types

0.0000000000000000e+00 1.9309999999999999e+01 xlo xhi
0.0000000000000000e+00 1.9309999999999999e+01 ylo yhi
0.0000000000000000e+00 9.6549999999999994e+00 zlo zhi
3.9199299999999990e+00 0.0000000000000000e+00 0.0000000000000000e+00 xy xz yz

Masses

1 1
2 1

Atoms # atomic

4263 2 6.1989762881841841e+00 4.6446971618272741e+00 2.0961160937561987e+00 1 0 0
4042 2 3.1404055339301631e+00 9.0588789023695737e-01 4.7582361957942432e+00 0 1 0
1433 1 9.6480667113244181e+00 4.3356973677640527e+00 1.3507081384098669e+00 0 0 0
2159 1 1.0021144230004975e+01 3.3771320128860651e+00 4.1071782836138899e+00 0 0 0
3622 2 1.1156384116849660e+00 1.1935791725578402e+00 8.1464923818544721e-01 0 0 1
1502 1 8.4418034010082525e+00 4.5363644838885122e+00 1.9678386607673743e+00 0 0 0
474 1 7.3771431316026992e-01 5.1392828826448266e-02 3.8599400188310091e+00 0 1 0
3205 1 1.2725516207798517e+00 2.0728056965754846e+00 9.7854275477513297e-01 1 1 0
1979 1 9.4140639911658202e+00 2.2944901234311774e+00 2.3692068614616071e+00 0 0 0
851 1 2.0220689458376215e+00 1.3079558608901491e+00 6.8049217111444760e-01 0 1 0
253 1 2.4408192154963348e+00 5.9547248976808720e-01 1.3625801219054867e+00 0 1 0
1190 1 2.9670361497406761e+00 1.5666218662048605e+00 1.1946301049389538e+00 0 0 1
3918 2 2.7360870109173825e+00 1.6469943293490326e+00 3.3760335371149708e-01 0 1 0
30 1 6.1586992440112596e+00 3.7258161393563740e+00 4.0918745381421040e+00 0 0 0
1127 1 2.9355576969998380e+00 8.0257706201563328e-01 3.7382633347880356e-01 0 0 1
1554 1 3.9358378224170680e+00 1.0816898272262698e+00 9.9152483751813136e-01 0 0 1
4116 2 3.3535271761290049e+00 7.4479528029024467e-01 1.6815279320929197e+00 1 0 -1
95 1 4.3090582264404196e+00 4.7814179441010568e-01 1.7446054500357473e+00 0 0 0
2513 1 9.1673673277709664e+00 4.9079932679449800e-01 9.1339836887297654e-01 0 0 0
3688 2 2.7745606270536527e+00 3.9913889054173426e+00 4.5895917186545123e+00 0 1 0
870 1 4.8907435072717647e+00 1.3780728806659812e+00 1.4459884026052106e+00 0 1 1
1798 1 5.4998809879513617e+00 7.3479979153589570e-01 9.2341607191351582e-01 0 1 0
3080 1 6.2923882189427882e-01 2.8890358754324268e+00 3.3135157511131395e+00 1 0 0
1711 1 9.0129722569273749e+00 2.5908998516013777e+00 4.9032747101341062e-01 0 1 0
1615 1 6.5884422890562133e+00 1.1673381536875791e+00 9.6809544938546377e-01 0 0 1
1678 1 8.9561269869201929e+00 3.0014339187185097e+00 2.9923687711118561e+00 0 0 1
987 1 5.8268498773255839e+00 1.6142421232232693e+00 2.3221208708410823e-01 0 0 0
50 1 4.6513198958770872e+00 4.7748663229565036e+00 1.6850308904787836e+00 0 0 0
1359 1 7.2319198840747712e+00 1.1215331846632417e+00 1.6267373529226234e-01 0 1 1
3468 2 7.5541126857536458e+00 1.1972230885426909e+00 9.3670275139069681e-01 -1 0 1
1474 1 1.0269671571813792e+01 4.5586414409090068e+00 3.1918172803053153e+00 0 0 0
1470 1 8.8899192725393306e+00 2.5685075830970825e+00 1.5752015673248652e+00 0 0 0
1117 1 4.5084605955263406e+00 3.9839850147892855e+00 2.2047908017761972e-01 0 0 1
3137 1 5.1562416994505478e-01 2.1212402618448908e-01 8.1525789192670750e-01 1 0 1
115 1 1.3970207133437527e+00 5.9923654053985331e-01 1.3095498561067798e+00 0 0 0
137 1 1.3721926527923565e+00 5.9498661498252903e-01 2.1242438935180533e-01 0 0 1
254 1 9.2808537419339610e-01 3.2147508950664321e+00 1.2880827991353003e+00 0 1 0
548 1 5.7680127688911762e+00 2.9342258869739899e+00 4.7341680396189147e+00 0 0 0
1160 1 8.2897719119240421e+00 6.9726017988922506e-01 1.4642073318162605e+00 0 0 0
3599 2 1.5319249553159722e+00 3.6961907132565859e+00 1.0017176388838134e+00 0 0 0
622 1 2.0038502475728226e+00 3.0003828183087395e+00 7.7670920017088951e-01 0 0 1
3750 2 2.1174188726675061e+00 2.1516803570163092e+00 9.3684426065430915e-01 0 0 1
34 1 3.0173151164967722e+00 2.4241837690905932e+00 6.1820803433437288e-01 0 0 0
1065 1 2.5395274166961292e+00 2.6585905295064336e+00 1.5653653301998982e+00 0 0 0
968 1 4.1510204105342972e+00 2.3201527657241412e+00 5.8888587008413362e-01 0 0 1
3708 2 3.8990015657470378e+00 1.9446754422405095e+00 1.2864956761300854e+00 0 0 0
1166 1 3.7166104226395804e+00 2.9408780392143159e+00 1.3215253485475924e+00 0 0 1
3768 2 4.1051973338692012e+00 3.2243145970252436e+00 4.9870622438533274e-01 0 1 0
3676 2 8.3127559604798087e+00 1.0867752439724059e+00 2.2127011523363609e+00 0 1 1
3757 2 5.8886109079455675e+00 1.6688926932929418e+00 1.1320238411938479e+00 0 0 1
1764 1 5.2459893267367450e+00 2.3463831908998478e+00 7.5652518275916436e-01 0 1 0
1617 1 6.2756101865805105e+00 2.3536868697789788e+00 9.4158764333036726e-01 0 0 1
2174 1 4.5388746997991740e+00 1.7188471201543520e-01 6.5873048610391094e-01 0 1 0
1499 1 7.3105282497547881e+00 2.0261179348628384e+00 7.6141474402771547e-01 0 0 1
1544 1 9.1784204104713787e+00 1.5293631987945688e+00 4.7406519885093262e-01 0 0 0
1946 1 1.0094929550430850e+01 3.9301319955669989e+00 2.2750229557151989e+00 0 0 0
1965 1 9.1860123003399945e+00 1.3626836944280485e+00 1.5345885716173773e+00 0 0 0
1145 1 8.7480336112920760e+00 4.3643294015953993e+00 4.3150774817169246e+00 0 0 0
767 1 7.3682293145625080e+00 3.6292718989905953e-01 9.9957329775501391e-01 0 1 0
1689 1 9.4552195974347892e+00 2.3779023537220683e+00 4.5369365213581334e+00 0 0 0
1783 1 4.4614711474253612e+00 1.8352650164758405e-01 3.0493456466804032e+00 0 1 0
3793 2 6.9089902777040217e+00 2.7480953362318200e-01 2.6430469589961364e-01 0 1 0
171 1 1.2913373973692330e+00 4.5297622126475385e+00 1.1218047849288875e+00 0 0 1
1513 1 7.1473049474773145e+00 4.2799544154494091e+00 7.9949564000699191e-01 0 0 0
952 1 8.2955348730372158e+00 1.7820429954060273e+00 1.0728884781010868e+00 0 0 0
656 1 3.3477325809003693e+00 3.7148145137225814e+00 4.8532255899262328e-01 0 0 1
242 1 3.5159709354267314e+00 1.0690790173011526e-01 1.1345135603413310e+00 0 0 1
717 1 2.4004668753443830e+00 4.0035936866407402e+00 7.5467665596945466e-01 0 0 1
2996 1 3.2059114396123305e+00 4.6635421665250805e+00 1.2252063222118779e+00 1 0 0
668 1 3.0400808434842803e+00 3.6485278990067185e+00 1.5443387824035455e+00 0 0 0
2201 1 8.6152314931093770e+00 3.7328113704265475e+00 1.0493912146541100e+00 0 1 0
1472 1 9.0710779970419662e+00 3.5378327070838287e+00 1.9781805718046825e+00 0 0 0
1019 1 4.8992930862077531e+00 3.3133901013685425e+00 1.0144849324550596e+00 0 0 0
1198 1 4.0516695958536060e+00 4.0110612328114996e+00 1.1824265694934095e+00 0 1 0
3627 2 4.8515066408028975e+00 4.3388204448672205e+00 9.0366869209658807e-01 0 0 1
1870 1 8.2662143660209288e+00 9.7490282970644115e-01 4.2329163244449347e-01 0 1 1
3503 2 8.0554513723440788e+00 1.8554350411486340e+00 3.8270890384225655e+00 -1 0 2
567 1 6.0597893649029579e+00 3.3701132428961982e+00 1.2061657167552189e+00 0 0 0
669 1 5.5214849740550482e+00 4.2437345460365572e+00 1.4570070530823791e+00 0 0 1
3865 2 6.3049641578641031e+00 4.1420541148185226e+00 9.9994461883465358e-01 0 0 0
1051 1 5.5467575966266871e+00 3.9627123071089243e+00 3.5638753549539964e-01 0 0 0
1137 1 9.2983085647732313e+00 4.6121248681198450e+00 2.8112658667067967e+00 0 0 1
3588 2 2.4790161461506073e+00 4.3310166208407050e+00 3.3059036989537476e+00 0 0 0
3771 2 9.3225746713898694e+00 2.9747598368605965e+00 3.7753814899863150e+00 0 1 -1
503 1 8.0503599313489804e+00 2.8102698605706182e+00 8.9466129753667578e-01 0 0 0
1506 1 7.0938916704814954e+00 3.1412740219467050e+00 1.1565487229010916e+00 0 0 0
1564 1 7.8469760231954320e+00 3.6172539090612545e+00 3.3572931326844069e-01 0 0 1
1572 1 7.8223701880049639e+00 3.8217673775853154e+00 1.7255402728993918e+00 0 0 1
1671 1 9.6684311371258271e+00 3.2618396449534974e+00 9.9345546068543156e-01 0 0 1
2141 1 8.1207617134697720e+00 4.6544343070876435e+00 9.2909945029293328e-01 0 0 1
4063 2 9.4413279089293880e+00 1.4466643986087377e-01 2.7726053187295534e+00 0 1 1
94 1 1.4855676996458167e+00 4.1489537811882399e-01 3.2073684879858946e+00 0 0 0
2145 1 9.5516884405165232e+00 2.1697063276455144e+00 3.4318321109464911e+00 0 0 0
2468 1 9.7827360704065285e+00 2.1824678876162400e+00 1.1360856736870548e+00 0 0 0
520 1 1.0651035173396664e+00 1.4019577326282084e+00 1.7625521275489020e+00 0 0 0
2108 1 6.9484961272502090e+00 3.2221080519325671e+00 4.6570576060572639e+00 0 0 0
715 1 1.0540720447177594e+00 1.2187200336625048e+00 2.7794943791042774e+00 0 0 0
386 1 5.0791282649880252e+00 4.5786522111660302e-02 3.9256020088379731e+00 0 1 0
1000 1 2.0187929773985629e+00 1.7420885663003340e+00 1.6835587131450971e+00 0 0 0
4214 2 1.5571428957936697e+00 1.8138394708809700e+00 2.4085618017300456e+00 1 0 0
817 1 1.9076320031264518e+00 7.4918693709329232e-01 2.2703032992728254e+00 0 1 0
159 1 2.8289483745519375e+00 1.2651884461364942e+00 2.1780377190057552e+00 0 0 0
992 1 2.1832146773186349e+00 1.4003956319152744e+00 3.0492975234483142e+00 0 0 0
966 1 2.6574470927523928e+00 4.6597248696038307e-01 2.9101057789497826e+00 0 0 0
1134 1 3.2624921894488170e+00 1.6091585457019126e+00 3.0910030585760344e+00 0 0 1
1040 1 4.0207277111472148e+00 1.4610766737812315e+00 2.0082763702658819e+00 0 0 0
1358 1 3.6564849557337786e+00 6.6397388429997317e-01 2.5810522453852607e+00 0 1 1
1621 1 7.7372232081800139e+00 4.1450997477609315e+00 3.3325156175428861e+00 0 0 0
3878 2 4.5148117757327038e+00 8.7159865707407058e-01 2.4619804287293632e+00 0 0 1
631 1 4.2354813826260198e+00 1.2583045245011082e+00 3.2152669650159535e+00 0 0 0
3756 2 5.8823238108784581e+00 3.6593004315402300e-01 1.6593380980286754e+00 0 0 1
1357 1 5.1839857762944295e+00 4.5258741105726558e-01 2.1856338193558300e+00 0 1 1
575 1 5.2129281967364136e+00 8.9200863111709550e-01 3.2343357380047433e+00 0 0 0
722 1 5.8413188872060493e+00 1.1701374465583043e+00 1.8989094745512685e+00 0 1 0
1147 1 6.0668166781200838e+00 5.6427696266837257e-01 2.7105225804602413e+00 0 0 1
1351 1 6.8025572815277480e+00 5.3566339224388360e-01 1.8704350112984138e+00 0 1 0
3775 2 6.8639246950818800e+00 3.2721436711241686e-01 2.7080675117268695e+00 0 1 0
4228 2 1.9149288461783216e+00 1.2231949552677188e-02 1.7598080784748116e+00 1 0 0
1457 1 9.3190652865081027e+00 3.8100692745142108e+00 3.6012843869573463e+00 0 0 0
1218 1 3.3029714991915887e-01 1.2511308334281748e+00 1.0843110685444926e+00 0 1 0
3492 2 1.1271020150048436e+00 1.6941948813052030e-01 2.3883342363340456e+00 0 0 0
3635 2 9.6176420472566875e+00 4.5258758335542243e-02 4.0828428651533919e+00 0 0 1
21 1 2.0995582298915751e+00 2.1668768108131822e+00 1.2098366463051142e-02 0 0 0
3847 2 8.6737758211329155e+00 4.3723448780116350e+00 3.4167401609598032e+00 0 0 0
431 1 6.8571241151545315e-01 2.1263652780527265e+00 2.5526066296842900e+00 0 1 1
558 1 1.4516709013300582e+00 2.5449817546344726e+00 1.9228886060856847e+00 0 0 0
10 1 3.3289387994384279e-01 1.0322945574128821e+00 2.6413994247324036e-02 0 0 1
83 1 1.5603338821497075e+00 3.2350347276829523e+00 2.6831651346970000e+00 0 0 0
166 1 1.5177554836257843e+00 2.2542310338855027e+00 3.1643397875705315e+00 0 0 0
1376 1 2.4339858539246837e+00 2.3080722486693106e+00 2.5398471325163414e+00 0 1 0
3606 2 2.3556836194544468e+00 3.1285157828104770e+00 2.3197778951417170e+00 0 0 0
2941 1 3.3416571764064620e+00 3.1493632255052191e+00 2.3837642453576424e+00 1 0 0
3608 2 3.2069656708979681e+00 2.5011025343271256e+00 2.8166186962357336e+00 0 0 0
3128 1 2.4800336166165420e+00 3.2874681142922735e+00 3.2448539520793434e+00 1 0 0
555 1 3.3119518595980963e+00 2.2266748710515003e+00 2.0271958634532603e+00 0 0 0
505 1 4.5162107835307861e+00 2.3896297469967016e+00 1.6506798726549481e+00 0 0 0
663 1 4.0402717707330238e+00 2.3185976642533888e+00 2.7682766426257013e+00 0 0 0
3686 2 4.1484914097529559e+00 3.0429735501862729e+00 2.1339750862281033e+00 0 1 0
1446 1 5.0532441007430808e+00 2.8370914985994995e+00 2.5267335386810732e+00 0 0 0
568 1 4.9573202508664176e+00 1.6830960715685552e+00 2.3702128071037172e+00 0 0 0
3703 2 5.3928182967647409e+00 3.1219424487296012e+00 1.6760377682774754e+00 0 0 0
3533 2 5.7509207806132148e+00 1.3642046961399454e+00 2.7342326311793586e+00 0 1 0
1462 1 5.6290507220182935e+00 2.3433742348448900e+00 1.8101683980238314e+00 0 0 0
1511 1 5.8573394960325889e+00 2.1968588864479197e+00 2.8374795298301949e+00 0 0 0
1561 1 6.4932812050288859e+00 2.8986659907788028e+00 2.0599142231167908e+00 0 0 0
2197 1 6.7284648909017326e+00 1.2868741013812475e+00 2.7276763795717915e+00 0 1 0
566 1 6.6141715731343895e+00 1.8631698339089420e+00 1.8767316088837744e+00 0 0 0
1437 1 7.4379101925300874e+00 2.4310765774565288e+00 1.8194121842954050e+00 0 0 0
2101 1 7.5187732247029544e+00 1.3592821801763340e+00 1.7687225361567902e+00 0 0 1
3946 2 7.5619919600393732e+00 1.8869250393203321e+00 2.4949782496065400e+00 0 1 0
1721 1 6.9466589593707209e+00 2.3852483970818597e+00 2.9415125120497376e+00 0 1 0
2421 1 7.9380834522949169e+00 2.4403949298808656e+00 3.0334981424273022e+00 0 0 0
2689 1 9.1132523024916292e+00 1.2985255733951619e+00 2.8029702283855249e+00 0 0 0
3764 2 7.6854176521454800e+00 2.1073279512750262e-01 1.8501053770524269e+00 0 1 -1
1191 1 5.1781629782848517e+00 4.4510377748973378e+00 3.8727151894348273e+00 0 0 0
1696 1 7.6720873833327659e+00 4.1158224853955643e+00 4.3601805009303858e+00 0 0 0
1022 1 3.3022023585149838e+00 4.5784689549768904e+00 3.0844741278513399e+00 0 0 -1
2037 1 6.8691905485243696e+00 4.4718809383082361e+00 2.6650466933901273e+00 0 0 0
615 1 1.8883847756796390e+00 3.6613115873005873e+00 1.7636134237100278e+00 0 0 1
3028 1 1.0743014798823953e+00 4.1678798255789617e+00 2.0827462438578785e+00 1 0 0
3610 2 1.0702460373139049e+00 4.7453840665324876e+00 2.6790645388655365e+00 0 0 0
1098 1 8.1482316608500653e+00 1.9415079826668262e+00 1.3233277058560429e-02 0 0 1
1906 1 6.6191009800316714e+00 2.3059621205747396e-01 4.8013985425798014e+00 0 1 0
1071 1 6.4731843257696582e+00 1.3644473273580986e+00 4.7245413682668191e+00 0 0 -1
1039 1 3.7041610709624280e+00 4.1598619391782359e+00 2.1933213882286893e+00 0 0 0
4238 2 2.4199816037450770e+00 4.3378903283140229e+00 1.6143896841307104e+00 1 0 0
3619 2 3.4139791454009440e+00 3.7436394506864827e+00 3.0718376161326253e+00 0 0 1
586 1 2.6070402594377029e+00 4.0107967037646715e+00 2.4405258365982734e+00 0 0 0
2132 1 9.4746158425383342e+00 6.7058102379435580e-01 3.5636366190185753e+00 0 0 0
1682 1 7.2470432589534006e+00 3.1976408996150445e+00 3.6575169434545201e+00 0 0 0
1440 1 4.2111321864038240e+00 3.3861756715969995e+00 2.8895552808934872e+00 0 0 0
664 1 4.7523829501646864e+00 3.6682254507317853e+00 1.9766415115338716e+00 0 0 0
550 1 4.3806799796255973e+00 4.5249973508485555e+00 2.9805247673375388e+00 0 0 0
655 1 5.3368260459728045e+00 4.5049878243278494e+00 2.4843260968104453e+00 0 0 1
994 1 5.2172764545082853e+00 3.6623679887187102e+00 3.1584712610904080e+00 0 0 0
1428 1 6.7219846858112753e+00 3.9684090422151259e+00 1.7397311586404760e+00 0 0 0
1613 1 9.8046119506871943e+00 4.2097309816726529e+00 4.6930225449949576e+00 0 0 0
534 1 6.2876532470174631e+00 3.1920039540077707e+00 3.1228306097521341e+00 0 0 0
1271 1 5.8146074868057385e+00 3.6102395273124923e+00 2.2262949384232189e+00 0 1 0
1607 1 9.1319357623961910e+00 4.6973012681003183e+00 4.2238073754946126e-01 0 0 1
3838 2 6.8309958073674180e+00 3.9493910078469376e+00 3.3457989602373166e+00 0 0 0
3127 1 3.1873416553107776e+00 3.8549851153688137e+00 3.8552334805253801e+00 1 0 0
1072 1 8.1968309029918132e+00 2.9933853193023290e+00 2.2432914332724692e+00 0 0 0
1535 1 7.1942076796686276e+00 3.4816878856890860e+00 2.6226045299200735e+00 0 0 0
3964 2 7.9460761423942303e+00 3.3135731315100174e+00 3.0250990163054015e+00 0 1 0
1858 1 7.8740390000591765e+00 1.3654842659922193e+00 4.5890459441534963e+00 0 1 0
1103 1 8.5928683709807512e+00 4.1408632870911793e-01 4.2650847390826323e+00 0 0 0
2076 1 8.0872012910443161e+00 1.4474618466384326e+00 3.0454763889114989e+00 0 0 1
3040 1 3.6290682645474281e+00 4.6053249296140839e+00 1.5067101714264317e-01 1 0 0
570 1 3.5579706144942924e-01 3.8876479586619078e-01 2.9295432808494937e+00 0 0 0
628 1 6.7057902774662868e+00 4.3165149296176661e+00 4.7863461594325010e+00 0 0 0
599 1 2.9795100758262199e+00 5.1215169724855825e-01 3.9940438768614648e+00 0 0 0
3121 1 9.0623447831804516e+00 3.3537135474545283e+00 4.5814763765779460e+00 0 0 0
194 1 7.5087981911596602e-01 9.0330423308793750e-01 4.4637293840379586e+00 0 0 0
3855 2 7.6669128775883477e-01 9.7917017328550926e-01 3.5803102222291998e+00 0 0 0
3192 1 7.9633701486853559e-01 1.9377254585679349e+00 3.8067179107044087e+00 1 0 0
1538 1 8.5167808051402094e+00 4.8031601618449715e-01 3.1420159373166321e+00 0 0 0
1880 1 8.4557041442148364e+00 3.8569173195584971e+00 2.7091196549674694e+00 0 0 0
1584 1 1.6040892442974126e+00 1.3105273854420296e+00 3.8882059854707860e+00 0 0 0
3464 2 2.2129643091410922e+00 7.3654979754544170e-01 3.5582640527662726e+00 0 0 -1
652 1 2.5670571407179921e+00 1.4478005641781595e+00 4.3486539166315437e+00 0 0 0
1622 1 8.2407506055790218e+00 3.3473773958872437e+00 3.8480623278058284e+00 0 0 0
991 1 7.6360151407139245e+00 6.5973037931420031e-01 2.5793128342550928e+00 0 0 0
4264 2 3.4441975585707723e+00 7.4764228021620005e-01 3.3771140420854380e+00 1 0 1
1054 1 3.9974122516818746e+00 4.4621897354578494e-01 3.9237485180502598e+00 0 0 0
481 1 3.5585400987894529e+00 1.4156003279392624e+00 4.0444877338562524e+00 0 0 0
235 1 4.7650680753133390e+00 1.1765225293653208e+00 4.1315998078035232e+00 0 0 0
887 1 1.8033218016613874e+00 2.9815964423902125e-01 4.2181215230393274e+00 0 1 0
3856 2 5.8320454054531847e+00 4.0745211266789860e-01 3.5296107878562846e+00 0 0 0
2360 1 5.7468583120941776e+00 6.8632202693905398e-01 4.3177528016148443e+00 0 1 0
2064 1 1.0533274192327338e+00 2.8063221200642485e+00 2.5170078886274005e-01 1 0 1
3587 2 7.6921185719689680e+00 4.2849895235772202e+00 2.4119037754281689e+00 0 0 0
1950 1 7.7680336320033154e+00 7.7389334851783720e-01 3.7733891573652110e+00 0 0 0
4029 2 7.0283372432950841e+00 8.7468900258532944e-01 4.2898303365767410e+00 0 1 0
580 1 6.7443835944305812e+00 5.4668151569808099e-01 3.5564338192421650e+00 0 0 0
1526 1 4.2956706992754583e+00 3.1154044564744185e+00 4.7745461546124153e+00 0 0 0
4129 2 9.3371159694099646e+00 3.8085767568084452e+00 2.7237102498411079e+00 1 0 1
1425 1 8.6406892148509939e+00 2.4089624898349764e+00 3.8522029351772438e+00 0 1 0
17 1 4.9252835512450915e-01 4.3734028715383455e-01 1.8275544437046432e+00 0 0 0
1242 1 4.6972007833152576e+00 1.4256151864824529e+00 3.5106747677218036e-01 0 1 0
906 1 8.3771484320274414e+00 1.9173261833797550e+00 2.1886343508692625e+00 0 1 0
636 1 1.9157169245776917e+00 4.7322316837318006e+00 2.1939388638457022e+00 0 0 1
3772 2 2.1584505790611357e+00 4.7781622089470938e-01 5.5797859948200701e-01 0 1 1
1549 1 9.4931737832519527e+00 5.3784787439225790e-01 4.7767309422492037e+00 0 0 0
1488 1 6.5228598529875104e+00 4.6061180478162509e+00 8.9308685917661446e-03 0 0 0
3480 2 9.0049541393224253e-01 2.6833619754671560e+00 4.2780122176199633e+00 0 0 0
700 1 7.4590684908517901e-01 3.5245665907422050e+00 4.3174522573298288e+00 0 0 0
288 1 1.5078011030579914e+00 3.1547631997147390e+00 3.7574787749476966e+00 0 1 0
4208 2 1.5950091506014941e+00 3.3179737631980344e+00 4.6039892813671566e+00 1 0 0
543 1 1.6328662522489554e+00 2.2760392924968911e+00 4.2772077185395432e+00 0 0 0
1165 1 2.4549842451188582e+00 2.2628407935537376e+00 3.6462518371315240e+00 0 0 0
802 1 2.5339078601260514e+00 3.0663118978481472e+00 4.2693728623792939e+00 0 1 0
572 1 3.3942956380657208e+00 2.8435317641095339e+00 3.6731241932322800e+00 0 0 0
1167 1 3.3121624847629940e+00 2.2881829630417170e+00 4.5586602199409576e+00 0 0 0
1491 1 3.6423032100961756e+00 1.0199134359457095e-01 4.8092648395165227e+00 0 0 -1
3719 2 3.5409009289452009e+00 3.2667604562845582e+00 4.4808520596639907e+00 0 0 -1
4119 2 3.9090474814774865e+00 2.0543202906696978e+00 3.5679423431176245e+00 0 0 0
1007 1 4.3651340769459237e+00 2.0149776306117060e+00 4.3057483825968434e+00 0 0 0
2164 1 4.4212799179980813e+00 2.8316683721180618e+00 3.7317411698000607e+00 0 0 1
3884 2 5.0193561949661687e+00 2.6052707215035378e+00 4.3917189028692833e+00 0 0 1
1062 1 4.9256727100718329e+00 1.9397048571539774e+00 3.3939445914649697e+00 0 0 0
1194 1 6.1113814859461844e+00 1.3550796704647585e+00 3.5401384995222456e+00 0 1 0
814 1 5.5464116491307562e+00 1.8180817338085586e+00 4.4005915360812118e+00 0 1 0
1081 1 5.5132499204565200e+00 2.7451124043605697e+00 3.7579113908670663e+00 0 0 1
860 1 6.4987315174855427e+00 2.3837510833389328e+00 4.0642238476286474e+00 0 1 1
3460 2 8.6973139147915752e+00 2.1124076598525874e+00 2.9994666840695730e+00 -1 0 0
2250 1 8.8073523743771833e+00 1.4040361484430883e+00 3.8873230184377547e+00 0 1 0
2098 1 6.5208960581928146e+00 3.5667804332060822e+00 2.7045171783450811e-01 0 0 1
1573 1 7.2028555794667799e+00 1.6146539042186587e+00 3.6988387686906599e+00 0 0 0
537 1 7.5403761008566033e+00 2.4383428522311950e+00 4.2253199028252046e+00 0 0 0
508 1 6.0302694073026855e+00 4.3734993432971550e+00 3.2366589921592377e+00 0 0 0
964 1 9.9870574630030369e+00 2.9319627936783310e+00 1.8430874503976067e+00 0 0 0
2063 1 9.9663693070930286e+00 3.2140266164240407e+00 3.0390800520688948e+00 0 0 0
124 1 5.1357039664782160e+00 3.5500781790536284e+00 4.3261946151836446e+00 0 0 0
177 1 1.6478145173283230e+00 4.2801395531375066e+00 3.1289010199694838e+00 0 0 0
1505 1 4.2244262745675192e+00 3.8948382396588825e+00 3.8811426241229725e+00 0 0 0
232 1 2.0285028481150476e+00 3.9975984329629797e+00 4.1202273091726003e+00 0 0 0
1001 1 7.3473146128177689e+00 2.7403137049951249e+00 2.3072711834192104e-02 0 0 0
4148 2 1.1399789590966076e+00 4.2194513023330433e+00 3.8742663461168063e+00 1 0 0
3590 2 6.2207831783386673e+00 4.6520765154075994e+00 4.1910582997603276e+00 0 0 -1
1519 1 9.0266805369920036e+00 5.3515764999557525e-01 2.1446246195029501e+00 0 0 0
1458 1 6.3546707799807676e+00 4.8454840887979085e-02 9.9635364826109241e-01 0 0 0
559 1 2.7773735030958928e+00 4.7407381718966857e+00 4.0988856014696085e+00 0 0 0
955 1 6.9619839835757471e+00 4.7247699767881830e+00 3.7736863892149541e+00 0 0 0
3482 2 8.3939013364830100e+00 4.3839534785689667e+00 7.9979915961058509e-02 0 0 1
986 1 1.2801676909854822e+00 4.5918037652441885e+00 4.6724829967369921e+00 0 0 0
1029 1 6.1929563878446858e+00 6.5417703854965326e-01 1.1165642356766009e-01 0 0 0
513 1 4.5922699110043679e+00 4.6226141802261127e+00 4.7859778649078608e+00 0 0 0
2006 1 1.0444647972836567e+01 3.9735584104870689e+00 7.3278645366713524e-01 0 0 0
1050 1 5.9319011713459933e+00 2.7162952534010949e+00 4.0757934505799780e-02 0 0 0
581 1 1.6926576385069918e+00 3.7298424484169859e+00 4.9240230793946474e-02 0 0 0
1042 1 1.9834738819154272e+00 4.8064591094146696e+00 2.0561552539093944e-01 0 0 0
2084 1 8.9589673918246522e+00 3.6612714673495850e+00 9.0839998553899237e-02 0 0 1
970 1 5.6489935441696755e+00 4.4655567784143724e+00 4.8150509790242930e+00 0 0 0
57 1 6.3423715011787030e-01 1.9937414363818204e+00 4.8101456851278872e+00 0 0 0
2100 1 9.8424667556489354e+00 3.5324425387497955e+00 6.0093217046388112e+00 0 0 0
1865 1 5.8853284599891884e+00 1.8958194463902036e-02 9.0020322165403499e+00 0 1 0
617 1 6.1973937203446336e+00 4.5317636400662344e+00 7.9658110858064486e+00 0 0 0
1171 1 9.0066303864158535e+00 2.9714592337828543e+00 5.5715432710139927e+00 0 0 0
1069 1 3.1427716584930536e+00 1.6037952766605359e+00 5.3177818486426940e+00 0 0 0
4078 2 8.9829322489992425e+00 9.5805021225140263e-01 5.7223095462179669e+00 0 1 0
3545 2 8.6490199173797533e-01 1.4857213322206413e+00 5.5461718445236210e+00 0 1 0
1486 1 9.4257489520835342e+00 4.7017536405430018e+00 7.3852093418606835e+00 0 0 -1
4220 2 8.5806699274655074e+00 1.2228911600636683e+00 7.2978038600029747e+00 0 0 -1
3728 2 9.8987718044437578e+00 3.2533903235941524e+00 7.7987257634090996e+00 0 0 0
1628 1 8.5054999522361285e+00 4.2157305100593883e+00 7.9968184443481274e+00 0 0 0
706 1 1.6999583635554614e+00 1.0982181420162693e+00 5.8921180964512860e+00 0 0 0
3800 2 5.9086404620558675e-01 2.3681313819508518e+00 9.2802618866447713e+00 0 1 -1
3513 2 2.3319299255694794e+00 1.5996994418613084e+00 5.6042283671152013e+00 0 0 0
842 1 2.3608462913748052e+00 7.9269184005067328e-01 5.1176500715952367e+00 0 1 0
913 1 2.7840246269393929e+00 1.2199400697274847e+00 6.3146830510399612e+00 0 1 0
517 1 5.2809719317270050e+00 4.5906844175927422e+00 9.2451486786416819e+00 0 0 0
1904 1 8.1264280698766385e+00 1.4303982004224129e+00 5.7151913414047337e+00 0 1 0
3611 2 4.0751875196148548e+00 3.5358452814907543e-01 5.4905604685791563e+00 0 0 1
3752 2 3.6718791540446216e+00 1.2995506279639493e+00 5.8741200124823827e+00 0 0 0
526 1 3.2637680334088826e+00 5.8160991401723228e-01 5.5981993733287112e+00 0 0 -1
1080 1 4.0260003715788493e+00 6.6764207980017565e-01 6.3761276245306018e+00 0 0 0
1514 1 6.5415339293646202e+00 2.9405160735090590e+00 8.8982060296755243e+00 0 0 -1
1128 1 4.6136069977245304e+00 1.2157757018469015e+00 5.7708859883645784e+00 0 0 1
1557 1 9.5205654390589629e+00 3.9745285184468937e+00 8.1154263993347406e+00 0 0 0
2053 1 9.0323879482816984e+00 1.7857132553822030e+00 6.3337419780280273e+00 0 0 0
1683 1 5.7334251998135786e+00 7.4335370679558177e-01 6.2272777265766583e+00 0 0 0
1199 1 5.5398882924336741e+00 1.2439083868663174e+00 5.2789033652627229e+00 0 1 0
3749 2 8.3510815880290732e+00 3.3708006797694696e+00 8.2686334992612807e+00 0 0 0
4122 2 6.3485817658629049e+00 8.3439500471592865e-01 5.3973221190796279e+00 0 0 0
1349 1 6.7269381471792435e+00 3.7166736038532139e-01 6.0700205373176956e+00 0 1 0
889 1 7.2980996224604731e+00 8.6556038056209450e-01 5.3482398163081957e+00 0 1 0
1021 1 8.3372712215266240e+00 2.8816803578925874e+00 9.3648121362834225e+00 0 0 0
1654 1 7.4499415537926801e+00 1.1285200183119657e+00 6.3988458685097012e+00 0 0 0
2106 1 7.6477425177808298e+00 4.7257561777848229e+00 9.6102080582397011e+00 0 0 0
3814 2 1.1184046489165562e+00 1.3752825727879545e-01 6.1885413207067117e+00 0 1 0
971 1 9.8780873376449758e+00 2.9040724427229101e+00 9.6219147132323251e+00 0 0 -1
674 1 6.3072582707119007e-01 2.4851842334918235e+00 7.5955842221905154e+00 0 0 0
560 1 1.7822107302398211e+00 3.4742414214592052e-02 5.6838124095124458e+00 0 0 0
1566 1 6.8487377142760213e+00 3.7519549716889693e+00 8.2646594607851522e+00 0 0 0
1907 1 7.7964064590740847e+00 3.6434555090927183e-02 6.4024451246157907e+00 0 1 0
323 1 2.6302370104690138e+00 3.1396328555275566e+00 9.6189742470911899e+00 0 1 -1
695 1 1.6465513226923143e+00 2.1228553004002833e+00 5.9741744014162803e+00 0 0 0
602 1 1.3162404184148446e+00 2.7076443894250906e+00 5.1485366389863501e+00 0 0 0
2586 1 1.3390980470905147e+00 3.0922678306755138e+00 6.2866831789740489e+00 1 0 0
4302 2 2.0943136940269973e+00 2.9318139838513142e+00 5.7804000941306901e+00 1 1 0
1180 1 2.7393323518170889e+00 2.2840510189848917e+00 6.0714269625386867e+00 0 0 0
1482 1 3.2049459506147970e+00 3.1755123032593673e+00 5.2671813065637254e+00 0 0 0
370 1 2.6246558050480853e+00 4.9405742354166099e-01 8.2169536185938714e+00 0 1 0
675 1 2.6996257059769699e+00 3.3209809285759748e+00 6.2407655273487546e+00 0 0 0
676 1 2.2394812774931614e+00 3.6156461893264296e+00 5.1879544325843572e+00 0 0 0
1114 1 4.0187194678532343e+00 2.1889542821414611e+00 5.3451039610940798e+00 0 0 0
1187 1 4.6402300473192177e+00 2.3206557679327497e+00 6.1928387695197609e+00 0 0 0
659 1 3.7074536582222604e+00 2.8981188820408992e+00 6.1498965028243910e+00 0 0 0
3713 2 4.5285185435503879e+00 2.9616283189418255e+00 5.6259155380876358e+00 0 0 0
698 1 3.6378826585408301e+00 1.9213334830391622e+00 6.4566777715856709e+00 0 0 0
1177 1 5.0850500702884229e+00 2.2883665444348269e+00 5.3004282353212497e+00 0 0 0
1853 1 5.5747221302763608e+00 1.7915167369946292e+00 6.2489523917163066e+00 0 1 1
3123 1 5.6392613002164396e+00 2.8085355711488447e+00 6.0134224158893455e+00 1 0 0
3577 2 6.3563332875395684e+00 2.2301318540589872e+00 6.1353038830332061e+00 0 0 -1
1676 1 6.0998846899979151e+00 2.1339863532925660e+00 5.3081376839688348e+00 0 0 0
1647 1 6.6346023089555173e+00 1.4709274912625625e+00 5.8507901306502799e+00 0 0 0
3707 2 6.8230162305288191e+00 1.3934294254527029e+00 8.9678781774867549e+00 0 0 -1
592 1 5.0529792252631356e-01 6.2826245431621330e-01 8.5149322740081921e+00 0 0 -1
1153 1 7.1582511375675635e+00 2.1969873459412188e+00 6.4038987514608063e+00 0 0 0
4284 2 9.2596553907807362e+00 4.0520185913229961e-01 6.6056414843330176e+00 0 1 0
998 1 7.7923463507167217e+00 4.3648868091670598e+00 6.6454929641784704e+00 0 0 0
2340 1 8.8456049686422009e+00 1.5944353325083394e-01 9.5357804917506073e+00 0 1 0
2610 1 9.6279901670260912e+00 2.3850439814473483e+00 8.1290904531061940e+00 0 0 0
1688 1 9.0960392978011217e+00 4.0322751658271718e+00 5.4421617039637837e+00 0 0 0
1079 1 1.1963371328932437e+00 3.6938126026147895e+00 5.3721474204445316e+00 0 0 0
223 1 9.5988731677360806e-01 4.5862623528639386e+00 5.8535242490841561e+00 0 0 0
1133 1 1.8779148374679053e+00 4.0378247353264429e+00 6.0955871655762728e+00 0 0 0
1963 1 8.4382531137659598e+00 2.2449030196924831e+00 4.9389380132132814e+00 0 0 0
1115 1 8.2755649398581603e+00 3.6140528750703638e+00 5.9301913301680775e+00 0 0 0
601 1 3.0835648659769452e+00 4.3339553571812868e+00 5.8073441918468252e+00 0 0 0
1093 1 4.1361022703117563e+00 3.8365236649854646e+00 5.8051430711748608e+00 0 0 0
1814 1 9.4437177285442200e+00 5.1334972586832406e-01 8.6252390323097590e+00 0 1 0
2088 1 5.1129471289572459e+00 3.5156713139805191e+00 5.3788436470072218e+00 0 0 0
127 1 4.8511630660837781e+00 3.3399609334433751e+00 6.5706147059524955e+00 0 0 0
784 1 7.8160856649955956e+00 7.8292152414945326e-01 7.2601388156520867e+00 0 1 0
1085 1 6.2110354806220016e+00 3.6571280225304283e+00 5.3719479320317189e+00 0 0 0
3016 1 5.7718294069459786e+00 3.8955443406188661e+00 6.3311284707613256e+00 1 0 0
1184 1 6.9204940372196235e+00 3.9587003587769241e+00 6.3108033153116683e+00 0 0 0
1030 1 6.9145736371621762e+00 2.8628876690032863e+00 5.7038038682225745e+00 0 0 0
1504 1 7.4198788570383130e+00 3.8247576255281301e+00 5.3431484928977149e+00 0 0 0
2071 1 8.5703587947183983e+00 3.7409099151572156e+00 6.9592666761614410e+00 0 0 0