LAMMPS data file via write_data, version 12 Dec 2018, timestep = 385440

4320 atoms
2 atom types

0.0000000000000000e+00 1.9309999999999999e+01 xlo xhi
0.0000000000000000e+00 1.9309999999999999e+01 ylo yhi
0.0000000000000000e+00 9.6549999999999994e+00 zlo zhi
5.6385199999999980e+00 0.0000000000000000e+00 0.0000000000000000e+00 xy xz yz

Masses

1 1
2 1

Atoms # atomic

4263 2 5.6147744867026361e+00 4.3324370682166888e+00 2.1844308246378072e+00 1 0 0
1441 1 9.3664802059829881e+00 1.6891006079572073e+00 1.7175448085218978e-01 0 0 0
1433 1 9.0617519387019261e+00 4.2160000023979398e+00 1.4920936672636891e+00 0 0 0
2159 1 9.1892893285988340e+00 2.8580317002537310e+00 3.8657623136506811e+00 0 0 0
3793 2 6.2469818606891643e+00 1.7291725782422562e-01 4.5602559096004341e-01 0 1 0
1502 1 7.9660715850413260e+00 4.3570893909544042e+00 1.9110588487489819e+00 0 0 0
1689 1 8.9615107577805944e+00 2.1840492826846556e+00 4.7242194084446414e+00 0 0 0
1098 1 7.3766176562145338e+00 1.6795337617325579e+00 2.1451203691762666e-01 0 0 1
1979 1 8.8748707416730852e+00 2.1706988000179597e+00 2.3594999754596775e+00 0 0 0
851 1 1.3565196307939131e+00 1.4686917839365210e+00 6.8838532055843094e-01 0 1 0
253 1 1.8081593346766820e+00 6.8494312285508674e-01 1.2489233407591744e+00 0 1 0
1190 1 2.3550649346587615e+00 1.6943120204218878e+00 1.1318248010501373e+00 0 0 1
3918 2 2.0984278544785431e+00 1.7787985796473575e+00 2.8651869000278307e-01 0 1 0
30 1 5.5843390064469887e+00 3.6241997242689479e+00 3.9435214443010054e+00 0 0 0
1127 1 2.2767902251892225e+00 8.9931886714292808e-01 2.3813521056468898e-01 0 0 1
1554 1 3.1698124927507259e+00 1.1476390073373839e+00 8.5651202037539165e-01 0 0 1
4116 2 2.6669129269058498e+00 8.3145725759593048e-01 1.6071406680762088e+00 1 0 -1
95 1 3.5679237739698419e+00 4.2209742213621454e-01 1.7028114114304231e+00 0 0 0
2513 1 8.5914340396343079e+00 2.1920726002793095e-01 1.0051115315457302e+00 0 0 0
2275 1 1.0226976398395205e+01 3.4520694501189131e+00 1.2588677180010126e+00 0 1 0
870 1 4.2063434563144746e+00 1.6178300923130040e+00 1.3563681691146063e+00 0 1 1
1798 1 4.7637978712798192e+00 7.8440381764856992e-01 1.0131982362574050e+00 0 1 0
4281 2 9.8146698642751780e+00 9.3272292769018772e-01 3.0675522733134931e-02 0 1 0
1711 1 8.2754305018346308e+00 2.2622302887561316e+00 4.3623225524483733e-01 0 1 0
1615 1 5.8298004586675756e+00 1.0566804425486680e+00 1.0991182420212697e+00 0 0 1
1678 1 8.3723176632198211e+00 2.7374411380251096e+00 3.0726336563930361e+00 0 0 1
987 1 5.0372699276654451e+00 1.6044817279514394e+00 3.4944147961408512e-01 0 0 0
1519 1 8.4759518237406848e+00 1.8948824569188522e-01 2.1580642968828001e+00 0 0 0
1485 1 9.4451683960378539e+00 4.1789524117836852e-01 2.5478016992498809e+00 0 0 0
3468 2 6.7016175907070732e+00 8.6915139713444145e-01 1.2697028385365645e+00 -1 0 1
1538 1 7.9436964972035939e+00 2.3565606106410683e-01 3.1297872664239392e+00 0 0 0
1470 1 8.4084463966752292e+00 2.5076104903191259e+00 1.5013425239573404e+00 0 0 0
1001 1 6.7036582539850977e+00 2.5164560819006243e+00 2.3059120506407968e-01 0 0 0
2996 1 2.6611035248054895e+00 4.7227503309119134e+00 1.1071296168896578e+00 1 0 0
115 1 7.3179028476107622e-01 8.1101511768195889e-01 1.3419913234429464e+00 0 0 0
2081 1 9.9186196053052225e+00 2.0224198831136784e+00 4.0140630796867374e+00 0 0 0
2460 1 9.9835660782129239e+00 3.4973302854552277e+00 4.0537803963386470e+00 0 0 0
3590 2 5.5877571097312781e+00 4.4605327436759525e+00 4.0280866895136658e+00 0 0 -1
1160 1 7.6355152781196187e+00 4.9970666316956708e-01 1.5539674144896924e+00 0 0 0
2084 1 8.3830882375435536e+00 3.3056729766420769e+00 1.3296257202406911e-01 0 0 1
622 1 1.4162093385750527e+00 3.1022181932885156e+00 7.6663048947352730e-01 0 0 1
3750 2 1.7116454928155169e+00 2.2971653025643963e+00 9.8133174387683653e-01 0 0 1
34 1 2.4210519904990431e+00 2.6376990256229029e+00 5.3740285404575705e-01 0 0 0
1065 1 1.9633391835523155e+00 2.8468916872691521e+00 1.6083514058426549e+00 0 0 0
968 1 3.6343933024993622e+00 2.3273218642899778e+00 5.4147520259805026e-01 0 0 1
3708 2 3.2592672829191955e+00 1.9733504517922598e+00 1.2138068360900818e+00 0 0 0
1166 1 3.2238076905013759e+00 3.0607780185053888e+00 1.3109980145085314e+00 0 0 1
3768 2 3.5340735418110190e+00 3.2664508944830590e+00 5.3067686831868421e-01 0 1 0
3676 2 7.7823966545283465e+00 9.9397770044790068e-01 2.1878077545541870e+00 0 1 1
3757 2 5.1132602497775252e+00 1.6208972322129676e+00 1.2267623000814427e+00 0 0 1
1764 1 4.6410225454302072e+00 2.3948582285280033e+00 8.9768481360303476e-01 0 1 0
1617 1 5.7643727700892731e+00 2.2506595177176867e+00 9.9382209089228946e-01 0 0 1
2174 1 3.8833390999918196e+00 3.2688791998025740e-01 6.9852641766229095e-01 0 1 0
1499 1 6.7292124219463689e+00 1.8262470196890748e+00 1.1287564255097002e+00 0 0 1
1544 1 8.4739814408262326e+00 1.1915062329074171e+00 6.5185732039677258e-01 0 0 0
1946 1 9.6874991410303437e+00 3.9520967731838024e+00 2.2294884196640576e+00 0 0 0
1965 1 8.5087362979375367e+00 1.1979121516130578e+00 1.6828813822300399e+00 0 0 0
1145 1 8.1753949050032837e+00 4.0803074974998426e+00 4.0569311953307841e+00 0 0 0
21 1 1.4724568712527200e+00 2.3291655313085169e+00 1.6323212052648559e-02 0 0 0
4242 2 9.1608585010937755e+00 4.6135568364296808e-01 1.7042198302191229e+00 0 0 1
2048 1 1.0738510449225375e+01 4.2370498822734737e+00 2.3434091156979706e+00 0 0 0
4133 2 9.6931070947685676e+00 4.4048184603527059e+00 3.9762335747444264e+00 0 0 0
1071 1 5.9506488780256621e+00 1.3233936211882087e+00 4.6267593954734378e+00 0 0 -1
1513 1 6.5795708984067067e+00 4.2655817776824501e+00 9.0449593187526933e-01 0 0 0
952 1 7.6945827004190814e+00 1.7173100600923961e+00 1.2237886315321755e+00 0 0 0
656 1 2.7450742337964105e+00 3.6751699154488793e+00 5.0891634372675820e-01 0 0 1
474 1 2.0159809571422233e-01 3.8231222103425222e-01 3.7802807469160573e+00 0 1 0
717 1 1.8449867063644039e+00 4.2047195752685012e+00 7.0571766178967876e-01 0 0 1
3622 2 4.8862381080972833e-01 1.5415326906154350e+00 6.4863546324826682e-01 0 0 1
668 1 2.4042163548680202e+00 3.7657167587351101e+00 1.5981484800529413e+00 0 0 0
2201 1 8.1942874362234939e+00 3.6424145143986437e+00 1.1145674287643474e+00 0 1 0
1472 1 8.6589183559818466e+00 3.5156319853345477e+00 2.1291932516605474e+00 0 0 0
1019 1 4.2583256990927723e+00 3.3503443945201314e+00 1.0436212400343690e+00 0 0 0
1198 1 3.5206252817535093e+00 4.0714294325630815e+00 1.0495084717798973e+00 0 1 0
3627 2 4.3501925696900194e+00 4.2396400953859734e+00 8.2563851393136400e-01 0 0 1
1870 1 7.5757823932766115e+00 7.1019063781301128e-01 5.4874290751710708e-01 0 1 1
3503 2 7.5334736675634844e+00 1.6773380481623608e+00 3.8208948371922586e+00 -1 0 2
567 1 5.3082336524469582e+00 3.1768086451180353e+00 1.1361999132320770e+00 0 0 0
669 1 4.9927782660251196e+00 4.1310703495749559e+00 1.4196696228789367e+00 0 0 1
3865 2 5.7324558964355399e+00 3.9463079842368347e+00 1.0085216679230995e+00 0 0 0
1051 1 5.0272409090506631e+00 3.7595229628229161e+00 2.8573746798153127e-01 0 0 0
1783 1 3.9241632284936054e+00 2.8889657874402103e-01 3.1328728116223967e+00 0 1 0
3588 2 1.8718165042616697e+00 4.0522109864590083e+00 3.5445030434212041e+00 0 0 0
3771 2 8.4753533977593207e+00 3.3070265458653632e+00 3.6985770455888112e+00 0 1 -1
503 1 7.4896223506566653e+00 2.7233947908435230e+00 1.0540935222420271e+00 0 0 0
1506 1 6.5784733404616578e+00 2.9587448508496825e+00 1.1516969933111703e+00 0 0 0
1564 1 7.2801524818083889e+00 3.5115499481019143e+00 4.2144215747004327e-01 0 0 1
1572 1 7.2213055426862045e+00 3.6903882505914258e+00 1.5406154714976006e+00 0 0 1
1671 1 9.1361890117609956e+00 3.2284414345492762e+00 9.4626930299705980e-01 0 0 1
56 1 3.0064125229184508e+00 1.7735403777223151e+00 5.4257069268394921e-03 0 0 0
2006 1 9.7213819666554571e+00 4.1469121476360096e+00 6.3865748332328121e-01 0 0 0
94 1 1.0376669283918791e+00 5.2619003513254203e-01 3.3221255438942783e+00 0 0 0
2145 1 9.0601373220663284e+00 1.8213199420803503e+00 3.4810374205869441e+00 0 0 0
2468 1 9.1481056792684665e+00 1.9485760256547124e+00 1.1636937973758332e+00 0 0 0
1526 1 3.7352476287285477e+00 2.9899694799729328e+00 4.7503283647061876e+00 0 0 0
577 1 2.3626978810365946e+00 1.1048746510528747e-01 1.9575762307332847e+00 0 0 0
3482 2 7.8848965000122808e+00 4.1431154370684764e+00 1.3925287298787756e-01 0 0 1
3688 2 2.3754491792188954e+00 3.9472867623961716e+00 4.7122183868916165e+00 0 1 0
1000 1 1.4205677083354176e+00 1.7882714903119470e+00 1.7142801720456267e+00 0 0 0
4214 2 9.7938061039253443e-01 1.8866823119598299e+00 2.5041993220225871e+00 1 0 0
817 1 1.2683921581892936e+00 8.4998255941205236e-01 2.2718540486218264e+00 0 1 0
159 1 2.2330414334855040e+00 1.3053381760389984e+00 2.1136386718478106e+00 0 0 0
992 1 1.3454790465240669e+00 1.5015437145294843e+00 3.1584493763906760e+00 0 0 0
966 1 2.0375404479395378e+00 5.5283076880963922e-01 2.9178418708707339e+00 0 0 0
1134 1 2.6202467350935446e+00 1.6367307352685656e+00 2.9404893835431953e+00 0 0 1
1040 1 3.3681761016572649e+00 1.4180255259355892e+00 1.9547571575565050e+00 0 0 0
1358 1 3.0162182617249020e+00 6.8014290909006758e-01 2.5463136772521744e+00 0 1 1
1621 1 7.0722543026281670e+00 3.9544924488825388e+00 3.2503836272139139e+00 0 0 0
3878 2 3.9147764066483024e+00 9.4732780263146410e-01 2.4295508714341634e+00 0 0 1
631 1 3.5816049249942505e+00 1.2843052858715855e+00 3.2226140164135195e+00 0 0 0
3756 2 5.1939832698597019e+00 3.3372099736767707e-01 1.6382611447886939e+00 0 0 1
1357 1 4.4927363757471515e+00 3.3087878260534243e-01 2.2171363896690264e+00 0 1 1
575 1 4.6596428461489108e+00 1.0104933288464277e+00 3.0116464599030723e+00 0 0 0
722 1 5.1019305624194349e+00 1.1458342499347223e+00 1.9296208261014816e+00 0 1 0
1147 1 5.4949548457188904e+00 4.4411149574251679e-01 2.6930602027415302e+00 0 0 1
1351 1 6.1577833679531171e+00 4.1415397390433928e-01 1.8706614255354859e+00 0 1 0
3635 2 8.7860184951014801e+00 4.1071397508272833e-01 4.3122056717976784e+00 0 0 1
2538 1 9.4383837161214572e+00 8.7910920658832736e-01 9.6074762900497523e-01 0 0 0
1457 1 9.0686948405283960e+00 3.8489843936803179e+00 3.4410986968037358e+00 0 0 0
955 1 6.3980297186747235e+00 4.5012917523395375e+00 3.7760313763852000e+00 0 0 0
3492 2 4.7526973831762331e-01 4.9185856635564829e-01 2.5711908180491152e+00 0 0 0
3205 1 7.7865492652292911e-01 2.2493793948482121e+00 1.0370942611557599e+00 1 1 0
50 1 4.1224124048431801e+00 4.6830554597533869e+00 1.6310550592383004e+00 0 0 0
3847 2 8.0916338824028369e+00 4.6243496225440763e+00 3.2673249178320747e+00 0 0 0
1684 1 1.0419987163101055e+01 3.2749135675789205e+00 2.4138506550354895e+00 0 0 0
3775 2 6.2989823825168916e+00 5.2455098015608562e-02 2.6921091363189915e+00 0 1 0
4296 2 6.9940990343970322e+00 4.6975179691660447e+00 4.4918612250748780e+00 1 0 0
1117 1 3.9254026979245626e+00 3.8861468450006038e+00 1.0350493509016580e-01 0 0 1
166 1 1.0223483115181251e+00 2.4920348469851983e+00 3.2105000932964702e+00 0 0 0
1376 1 1.8503042115680044e+00 2.2317240267511469e+00 2.6091461947749641e+00 0 1 0
3606 2 1.7139401101120972e+00 3.1976299385109055e+00 2.3336052362878759e+00 0 0 0
2941 1 2.6604713202126526e+00 3.2018160508522646e+00 2.4076777081457816e+00 1 0 0
3608 2 2.5186817132294896e+00 2.5446218530022859e+00 2.9487067881199893e+00 0 0 0
3128 1 1.9158477358187040e+00 3.2301201035121703e+00 3.1673455640419426e+00 1 0 0
555 1 2.7510218550684731e+00 2.2856767250494916e+00 1.9230925743550980e+00 0 0 0
505 1 3.8724827840144838e+00 2.4178374023036682e+00 1.7211825317968268e+00 0 0 0
663 1 3.3683016839650000e+00 2.4373204769012347e+00 2.7816298898052016e+00 0 0 0
3686 2 3.5404590533728832e+00 3.0383082247736386e+00 2.1850739470394136e+00 0 1 0
1446 1 4.3648745232773400e+00 2.8673392349798901e+00 2.5874945350634020e+00 0 0 0
568 1 4.2709323597357693e+00 1.7978126702659596e+00 2.4127578268983583e+00 0 0 0
3703 2 4.5939721860367815e+00 2.9405117893222981e+00 1.7214609501773517e+00 0 0 0
3533 2 5.5296792387558700e+00 1.3208557261964982e+00 2.6468733461058371e+00 0 1 0
1462 1 5.0261483330612586e+00 2.2016497328243556e+00 1.8443253464991698e+00 0 0 0
1511 1 5.2221742084232341e+00 2.0511621418738772e+00 2.8691261725071198e+00 0 0 0
1561 1 5.9633145159510264e+00 2.7457318951585092e+00 2.0445651058404879e+00 0 0 0
2197 1 6.3884720380280031e+00 1.0275822702111772e+00 2.7031883624640072e+00 0 1 0
566 1 6.0147963404640734e+00 1.6974677421723861e+00 1.9894340569463749e+00 0 0 0
1437 1 6.9411315216039702e+00 2.4269640584418610e+00 2.0263236343270821e+00 0 0 0
2101 1 7.0343043226348616e+00 1.2998349211212505e+00 1.9528299115495731e+00 0 0 1
3946 2 6.9759893013737981e+00 1.7503194796832724e+00 2.6134240010994603e+00 0 1 0
1721 1 6.3891315796451771e+00 2.1872051857028838e+00 3.0361618787008728e+00 0 1 0
2421 1 7.4333333511760831e+00 2.2414185438540177e+00 3.1740905986418735e+00 0 0 0
2689 1 8.6549648289145527e+00 1.0859598410794151e+00 2.7467046075566324e+00 0 0 0
3565 2 7.7708181237551779e+00 3.6722913858749417e+00 4.7706363129347524e+00 0 0 0
1191 1 4.7474530083871276e+00 4.5077012248418198e+00 3.7624311335478429e+00 0 0 0
1696 1 7.0392219543662478e+00 3.8235031293687878e+00 4.3586970123167070e+00 0 0 0
2108 1 6.2565998110684466e+00 3.1444709852294279e+00 4.6120881355010024e+00 0 0 0
2037 1 6.3395821577439460e+00 4.4645027433490032e+00 2.6401334187508816e+00 0 0 0
615 1 1.3569661605866659e+00 3.7821764088139394e+00 1.6330036046745133e+00 0 0 1
2112 1 1.0166645294320775e+01 4.4828980702971144e+00 1.5207609873621104e+00 0 0 0
1536 1 6.9104826452991635e+00 4.7492506199118738e+00 1.7445563140383851e+00 0 0 0
2141 1 7.5980446180605448e+00 4.4865349297892845e+00 8.5802890637041640e-01 0 0 1
4228 2 1.2844773893138373e+00 1.3231806774099833e-01 1.7492809659039259e+00 1 0 0
1029 1 5.5722860012653239e+00 7.1602354512856048e-01 1.0959214295325365e-01 0 0 0
1039 1 3.1476848660121979e+00 4.3043673327652963e+00 1.9936253200133676e+00 0 0 0
4238 2 1.9172446025276835e+00 4.4455536054031430e+00 1.5817071816416892e+00 1 0 0
3619 2 2.6405221210226206e+00 3.7753425302138583e+00 3.0391412587587894e+00 0 0 1
586 1 2.0190440085678474e+00 4.1094094013745330e+00 2.5224863926565062e+00 0 0 0
2132 1 8.9622694511512719e+00 3.8498730696428679e-01 3.5177523644765567e+00 0 0 0
1682 1 6.6335569828471446e+00 3.0383235822640735e+00 3.5889241414701920e+00 0 0 0
1440 1 3.4648614921448804e+00 3.5315707032097321e+00 2.8733188438348165e+00 0 0 0
664 1 4.0574694018761601e+00 3.6751286454831176e+00 1.9763132256867271e+00 0 0 0
550 1 3.7905819624582167e+00 4.5175226585537267e+00 2.9393342663532480e+00 0 0 0
655 1 4.7742419276090828e+00 4.4734660114996148e+00 2.4088412489569770e+00 0 0 1
994 1 4.5041660727796069e+00 3.6895052822137080e+00 3.0998945871287691e+00 0 0 0
1428 1 6.1204340007077480e+00 3.7487916872809546e+00 1.7792729815494324e+00 0 0 0
1613 1 9.1544276051666884e+00 3.9871395569697832e+00 4.4719320136540262e+00 0 0 0
534 1 5.7004917622926055e+00 3.1007824240084418e+00 3.0242926090811957e+00 0 0 0
1271 1 5.2164827158761948e+00 3.4783850230928266e+00 2.2252856668317369e+00 0 1 0
1474 1 9.8384721178151953e+00 4.4272405348642998e+00 3.0880078792910033e+00 0 0 0
3838 2 6.2244834102832796e+00 3.7487679990984599e+00 3.2825188012240307e+00 0 0 0
3127 1 2.6647936348659509e+00 4.1041745889170640e+00 3.9313214723243974e+00 1 0 0
1072 1 7.7356213829012752e+00 3.0835141967150030e+00 2.2302518816721069e+00 0 0 0
1535 1 6.6525536386833668e+00 3.3063363452021615e+00 2.5224818903951096e+00 0 0 0
3964 2 7.4172544616790592e+00 3.0603583428853884e+00 2.9772749762657700e+00 0 1 0
1858 1 7.4350723562318182e+00 1.1558508307070479e+00 4.4860653392841296e+00 0 1 0
1103 1 7.9593148995301588e+00 2.8708243650291648e-01 4.2156940340168694e+00 0 0 0
2076 1 7.5326187438676149e+00 1.2066421035101091e+00 3.0376284865013496e+00 0 0 1
1488 1 5.9758580759507760e+00 4.4620573932000314e+00 1.2910604709168917e-02 0 0 0
4208 2 1.2214851410183012e+00 3.2806495614254532e+00 4.4861170417110490e+00 1 0 0
1607 1 8.7147022351384535e+00 4.3307688032042275e+00 4.7053970513734311e-01 0 0 1
599 1 2.3346263584605800e+00 4.6107062241162755e-01 4.0029044622316547e+00 0 0 0
4129 2 1.0026228229334340e+01 3.6239722956278273e+00 3.1539925617238747e+00 1 0 1
242 1 2.7481435697200309e+00 1.8165926192490914e-01 9.9409691427193947e-01 0 0 1
4042 2 2.3941980068065036e+00 7.7921995913164988e-01 4.7941693400328855e+00 0 1 0
2631 1 9.8576975510512277e+00 1.9940480700645951e+00 2.8103946159865609e+00 0 0 0
1022 1 2.8045545947882884e+00 4.5920151237768332e+00 2.9896240826184082e+00 0 0 -1
1880 1 8.0476040436967065e+00 3.7821560148319389e+00 3.0514398078391123e+00 0 0 0
1584 1 7.8780808478159137e-01 1.4427984988804441e+00 4.0791718806494295e+00 0 0 0
3464 2 2.0562345863318829e+00 1.1639745197201143e+00 3.5740640889865616e+00 0 0 -1
652 1 1.8956501828169339e+00 1.5511450292501476e+00 4.4757134993862113e+00 0 0 0
1622 1 7.6433320295497058e+00 3.0420167680385450e+00 3.8656250826726675e+00 0 0 0
991 1 7.1197443023904263e+00 2.5466415242137697e-01 2.3985286488695134e+00 0 0 0
4264 2 2.8569542154395817e+00 7.7989582306080651e-01 3.3864134558938215e+00 1 0 1
1054 1 3.3758429711735567e+00 5.5767825826996575e-01 4.0226026251638869e+00 0 0 0
481 1 2.7390340350857301e+00 1.4929956734497134e+00 3.9531430664800236e+00 0 0 0
235 1 4.2762863100201027e+00 1.0802463575377876e+00 4.0244374587253366e+00 0 0 0
887 1 1.3280976639257271e+00 5.5016322832137698e-01 4.4150509388469104e+00 0 1 0
3856 2 5.0355727696447623e+00 4.4403230466757732e-01 3.4746853723245801e+00 0 0 0
2360 1 5.1910520546920669e+00 6.7769477705941050e-01 4.3431077011076713e+00 0 1 0
1066 1 1.0008883790326077e+01 2.4715324777194172e+00 8.0942874936536990e-01 0 0 0
3587 2 7.0483651218958068e+00 4.1284173415734502e+00 2.3118137589025891e+00 0 0 0
1950 1 7.0183162189569970e+00 4.3928831892361181e-01 3.5790002330758837e+00 0 0 0
4029 2 6.5722944267176819e+00 6.8325313506766427e-01 4.2992267432888633e+00 0 1 0
580 1 6.0054151615477886e+00 3.3484210365410172e-01 3.6041881770861921e+00 0 0 0
2649 1 1.0256039413102764e+01 2.7894169873509429e+00 3.3246462059673010e+00 0 0 0
1562 1 5.8012302481941376e+00 4.8016842953409933e+00 1.4533278585510374e+00 0 0 1
1425 1 8.2053041487424068e+00 2.1840574709590390e+00 3.9744458857680458e+00 0 1 0
3040 1 3.0821021755385685e+00 4.5506248765040809e+00 1.1038660805960791e-01 1 0 0
1242 1 4.0229091818993377e+00 1.4072802398025155e+00 2.7642503450245259e-01 0 1 0
906 1 7.8345769043711471e+00 1.8823247449818690e+00 2.2437013463270365e+00 0 1 0
1588 1 8.8630890672125560e+00 4.7935036448169068e+00 3.7485554658819322e+00 0 0 0
3772 2 1.5776579594035778e+00 4.4703439597076045e-01 3.2885894123049469e-01 0 1 1
1489 1 9.8493042134196500e+00 1.0818267506726413e+00 3.3598088516627520e+00 0 0 0
1359 1 6.5490296726069879e+00 1.0061284891141806e+00 3.9168142766949088e-01 0 1 1
2854 1 9.3133268800497220e+00 1.1480595443525610e+00 4.3479484090425329e+00 0 1 0
628 1 6.1855133204168009e+00 4.1884155365789058e+00 4.7258865532792411e+00 0 0 0
733 1 4.2867374535298204e+00 2.9251750263940419e+00 2.0645899817317948e-02 0 1 0
1527 1 1.0149779294981162e+01 3.4074874132213679e+00 9.8938161784757006e-02 0 0 0
543 1 1.1897810159211235e+00 2.4598965643177868e+00 4.2083048094500821e+00 0 0 0
1165 1 2.0626803494290931e+00 2.2436191925047000e+00 3.6373888847454827e+00 0 0 0
802 1 2.1255949485992875e+00 3.2801816279229690e+00 4.1876226976121806e+00 0 1 0
572 1 2.8894555036364276e+00 3.0678619933813445e+00 3.5284276108990626e+00 0 0 0
1167 1 2.7046326682360449e+00 2.4135909280733525e+00 4.4384544610906778e+00 0 0 0
558 1 9.8294857439146333e-01 2.6679986653213068e+00 2.1389096337289035e+00 0 0 0
3719 2 3.0496765074466503e+00 3.3209514120450239e+00 4.3090892601218336e+00 0 0 -1
4119 2 3.1718436594175645e+00 2.1361607119492327e+00 3.6491735988650063e+00 0 0 0
1007 1 3.7295484144126321e+00 2.0194321061488285e+00 4.3904161666072765e+00 0 0 0
2164 1 3.9456106088294254e+00 2.8489051163567196e+00 3.7355209020599087e+00 0 0 1
3884 2 4.4782426312011010e+00 2.5895827884719540e+00 4.3837486071207019e+00 0 0 1
1062 1 4.3806745058532304e+00 1.9527154959353035e+00 3.4462272351550776e+00 0 0 0
1194 1 5.5778305189373443e+00 1.2377514979922162e+00 3.4950431125261683e+00 0 1 0
814 1 4.9229718923438019e+00 1.8280523488631941e+00 4.3257654075346679e+00 0 1 0
1081 1 4.9715214593396402e+00 2.7310708721467836e+00 3.6414725024165917e+00 0 0 1
860 1 5.9433114251056978e+00 2.2890974150120718e+00 3.9906404712737849e+00 0 1 1
3460 2 8.2366897865864104e+00 1.8058201729409331e+00 3.0964925306365068e+00 -1 0 0
2250 1 8.3173139693587288e+00 1.1865039297436009e+00 3.8226548104064380e+00 0 1 0
2098 1 6.0507241961762777e+00 3.4682340656871746e+00 3.5798552929234917e-01 0 0 1
1573 1 6.6367109846503176e+00 1.3917976985420748e+00 3.7408389948750265e+00 0 0 0
537 1 6.9900934784069628e+00 2.2572660161071263e+00 4.1991843023178941e+00 0 0 0
508 1 5.5112613742834089e+00 4.2505093832696588e+00 3.0888857851849871e+00 0 0 0
964 1 9.5851579574586694e+00 2.7757465032892963e+00 1.7343069090132284e+00 0 0 0
2063 1 9.3519500079471740e+00 3.0181584099137004e+00 2.7909063702538672e+00 0 0 0
124 1 4.5470567843055836e+00 3.4876508299107774e+00 4.2112108088151894e+00 0 0 0
137 1 7.9530222814818341e-01 7.8340688534967584e-01 2.3154126604541533e-01 0 0 1
1505 1 3.7224786303367310e+00 3.9419604470022493e+00 3.7742179736280912e+00 0 0 0
232 1 1.4190689483144934e+00 4.1005543913054341e+00 4.3182139410544451e+00 0 0 0
1137 1 8.7606670868484713e+00 4.4618579165353847e+00 2.6995991077315087e+00 0 0 1
3121 1 8.3779840228813285e+00 3.0554208374327652e+00 4.5128616787663569e+00 0 0 0
2850 1 9.5018094690061954e+00 1.3670964576539735e+00 1.9822666424501043e+00 0 1 0
3441 1 4.1645907431082924e-01 5.3531863188820021e-02 4.8209036526042004e+00 1 1 0
2592 1 1.0398697889838960e+01 4.6450026210106126e+00 4.3987455336469923e+00 0 0 0
513 1 4.1770131397892767e+00 4.5703315433088827e+00 4.6889173150907890e+00 0 0 0
288 1 9.9702362654422250e-01 3.4038955788088687e+00 3.6764343824943864e+00 0 1 0
970 1 5.1387517934675557e+00 4.2403271845319974e+00 4.7911137084302453e+00 0 0 0
548 1 5.2605039020227764e+00 2.9415066084667165e+00 4.6632802886427358e+00 0 0 0
574 1 3.2957836799315885e+00 4.0655026018000484e+00 4.7468868599960992e+00 0 0 0
1050 1 5.3136498204684521e+00 2.7436918104083992e+00 1.2547559903288455e-01 0 0 0
3867 2 8.4733000690096816e+00 4.5614557940368607e+00 4.7248131838048621e+00 0 0 0
744 1 5.1495003277173677e+00 4.7833360419249340e+00 5.9665015642182073e-01 0 1 0
1122 1 9.0399398891483838e+00 5.4352876240672032e-01 3.1310802640644814e-02 0 0 0
1625 1 2.5488123822111248e+00 4.7851832727834944e+00 4.6552796799911382e+00 0 0 0
1402 1 4.7641293055368648e+00 1.0437302771231770e-01 2.4310163516667724e-01 0 1 1
2100 1 9.3565809665723148e+00 3.4014116116420188e+00 6.0163134344176665e+00 0 0 0
1626 1 6.1523900683581072e+00 2.5314487961227150e-01 9.0434652503190645e+00 0 0 0
617 1 5.6590200594835602e+00 4.3976646780205604e+00 8.0187359582233739e+00 0 0 0
1171 1 8.4084880004654465e+00 2.8759830482561064e+00 5.5537433035532127e+00 0 0 0
1069 1 2.4056988667031227e+00 1.6838092426122813e+00 5.2987838732878663e+00 0 0 0
2052 1 1.0260955641596354e+01 3.8152562573240121e+00 4.9791946784043422e+00 0 0 -1
3584 2 1.2949547830701023e+00 1.4672917158018575e+00 9.5426078339489138e+00 0 0 0
2038 1 1.0367944511578539e+01 4.0029596266785035e+00 6.0663813096735462e+00 0 0 0
4220 2 7.7646469911446605e+00 1.2303824566717632e+00 7.4630510321982708e+00 0 0 -1
3728 2 9.2732001370518677e+00 2.9444638985062062e+00 7.6365818479667267e+00 0 0 0
1628 1 8.0317648053982893e+00 4.0762291579067798e+00 8.0567906875207278e+00 0 0 0
706 1 8.7478420887976527e-01 1.2135027477771234e+00 5.9860304472355326e+00 0 0 0
1518 1 7.5957955980038632e+00 4.5892841555937629e+00 5.0904091350290566e+00 0 0 0
3513 2 1.5770234851732581e+00 1.7694267805761923e+00 5.7225849638088011e+00 0 0 0
842 1 1.6754781385065791e+00 9.7519374566786199e-01 5.3486124366821954e+00 0 1 0
913 1 2.0594137934019754e+00 1.3132032670010925e+00 6.3155555737173046e+00 0 1 0
517 1 4.7958017223375222e+00 4.5367278540738640e+00 9.2217637004698432e+00 0 0 0
1904 1 7.6122851364332194e+00 1.1707062086243551e+00 5.5067944068662822e+00 0 1 0
3611 2 3.4691462470748959e+00 6.0984911520479201e-01 5.4724763501609877e+00 0 0 1
3752 2 3.0571569655599000e+00 1.3470545433397323e+00 5.8663764803436971e+00 0 0 0
526 1 2.6225775046855935e+00 6.4077264217529240e-01 5.6992541885909551e+00 0 0 -1
1080 1 3.3924617193468949e+00 7.9708168710606264e-01 6.4051719516260270e+00 0 0 0
1514 1 6.1257861664482878e+00 2.8627767877381798e+00 9.0989648188294865e+00 0 0 -1
1128 1 3.9121561204945521e+00 1.3258725738362216e+00 5.6901912345951207e+00 0 0 1
1557 1 9.0959818685707106e+00 3.6200766482081859e+00 8.1255564200969861e+00 0 0 0
2053 1 8.4896767800282156e+00 1.9348326953702804e+00 6.1615859422309311e+00 0 0 0
1683 1 5.1055772725985413e+00 6.1948594316220618e-01 6.2624682315473965e+00 0 0 0
1199 1 4.9154120737666487e+00 1.1447505493358618e+00 5.2494070288926746e+00 0 1 0
3749 2 7.8190536104320580e+00 3.2424035367176223e+00 8.2931956716237298e+00 0 0 0
4122 2 5.6709882103676961e+00 6.7523463853265275e-01 5.1656201135704904e+00 0 0 0
1349 1 5.9361286501856352e+00 1.7841954122862141e-01 5.8479322958835169e+00 0 1 0
889 1 6.6023335947420074e+00 6.2474812641014466e-01 5.1519616807333541e+00 0 1 0
1021 1 7.5842343520172744e+00 2.6606471043463524e+00 9.3744461935835712e+00 0 0 0
1654 1 6.7991885613194691e+00 9.0979443144239336e-01 6.2025224440686166e+00 0 0 0
2340 1 8.1071353355426279e+00 9.8442530938886802e-02 9.5944999736357062e+00 0 1 0
3814 2 4.9321114437635727e-01 4.5849655810080947e-01 6.3250920921983198e+00 0 1 0
1549 1 9.2196570882806679e+00 3.4767869762084874e-01 5.1949578117012392e+00 0 0 0
2106 1 7.1061217774909728e+00 4.5758099835848594e+00 9.6187192046981931e+00 0 0 0
2900 1 9.4881218743386402e+00 5.0175233718017120e-01 7.0358255454845535e+00 0 1 0
1566 1 6.2593152869491959e+00 3.4946939241767492e+00 8.3002442758939505e+00 0 0 0
2619 1 9.9506916424285112e+00 4.3031146847991213e+00 7.0004110042988756e+00 0 0 0
592 1 4.8946200325534750e-01 9.0984308674365877e-01 8.8946607266179178e+00 0 0 -1
695 1 9.8264846184357801e-01 2.3265508433978788e+00 5.9991797232496440e+00 0 0 0
724 1 5.0065866849763037e+00 1.1412207801316757e-01 5.2473150436386851e+00 0 1 0
3761 2 6.5906490697532956e+00 4.7050913522895517e+00 6.9133966421565924e+00 0 0 0
4302 2 1.5272297628306148e+00 3.1243021735430663e+00 5.8664718300922125e+00 1 1 0
1180 1 2.1181639158872021e+00 2.3926265768373458e+00 6.1063802109765133e+00 0 0 0
1482 1 2.6935505027070850e+00 3.1666775099060933e+00 5.1310105062427471e+00 0 0 0
370 1 2.0689391256539795e+00 4.8641274744602203e-01 8.1304307055005633e+00 0 1 0
675 1 2.2172936634969247e+00 3.4323835004541596e+00 6.2297690889855932e+00 0 0 0
676 1 1.7614406574524120e+00 3.5981252276279712e+00 5.1614343274999577e+00 0 0 0
1114 1 3.2738492886459003e+00 2.1457762036094836e+00 5.3674492708634620e+00 0 0 0
1187 1 4.0047007800685650e+00 2.2064088175797738e+00 6.1679304399737935e+00 0 0 0
659 1 3.1655849776776872e+00 2.9106976210014355e+00 6.1027537486227272e+00 0 0 0
3713 2 3.9309195009062843e+00 2.9200748370563341e+00 5.6313309146079398e+00 0 0 0
698 1 3.0490183005464235e+00 1.9588871755079678e+00 6.4537808025916998e+00 0 0 0
1177 1 4.4261230109323284e+00 2.2425703859229329e+00 5.1938415333712165e+00 0 0 0
1853 1 4.9956047941222055e+00 1.7811027985482364e+00 6.1331745077366326e+00 0 1 1
3123 1 5.0425651933982163e+00 2.8296546688212452e+00 5.8094056721633844e+00 1 0 0
3577 2 5.8059827567026652e+00 2.1183101049366249e+00 6.0172475324799901e+00 0 0 -1
1676 1 5.6158449888253923e+00 2.1177495937804469e+00 5.1282419281752656e+00 0 0 0
1647 1 5.9302074609088686e+00 1.3478257120936759e+00 5.7788025330303654e+00 0 0 0
3707 2 6.1991664159052045e+00 1.1585951513645010e+00 9.2241808180578637e+00 0 0 -1
1438 1 8.3555795977465692e+00 4.6465678628150133e+00 9.1434591594951886e+00 0 0 -1
1153 1 6.6008034289069260e+00 1.9912035599069415e+00 6.3421385426450758e+00 0 0 0
1578 1 1.0534456819344920e+01 4.3488951219953105e+00 7.9046434183316299e+00 0 0 0
998 1 7.2564242448046095e+00 4.3006065110620453e+00 6.6168146928663409e+00 0 0 0
3386 1 4.9531863590265052e-01 9.3953875327877046e-01 7.0332764287401464e+00 1 1 0
2610 1 8.9694246744943413e+00 2.3155764378675574e+00 8.1536526844105559e+00 0 0 0
1688 1 8.4670911105152555e+00 3.9747623568548796e+00 5.3215739766246593e+00 0 0 0
3723 2 5.5984849811433097e+00 4.7547789139427170e+00 8.8279686096639587e+00 0 0 0
2123 1 8.6129433994357409e+00 8.9253823374835850e-01 5.9963581481148367e+00 0 0 0
1133 1 1.3269644487996750e+00 3.9957960548024549e+00 6.0893420710686028e+00 0 0 0
1899 1 7.4824856447454824e+00 1.0990666450411242e-01 5.1659315938041530e+00 0 1 0
1115 1 7.7166812275171610e+00 3.6266323357690973e+00 5.8960926562131188e+00 0 0 0
601 1 2.5413148352849717e+00 4.2177039782633994e+00 5.6310984067015513e+00 0 0 0
1093 1 3.6242425797085067e+00 3.8048268155103377e+00 5.8310764701327509e+00 0 0 0
4130 2 7.7833881087678822e+00 4.5863319628676331e+00 7.3475101999577586e+00 0 0 -1
2088 1 4.5151716584481534e+00 3.4706188478768545e+00 5.2479179254533053e+00 0 0 0
127 1 4.2225314865630565e+00 3.1943334728372768e+00 6.3557617856648054e+00 0 0 0
784 1 7.2120756579530418e+00 5.6074853299314364e-01 7.0894904502656910e+00 0 1 0
1085 1 5.7291321695384791e+00 3.5371113721455472e+00 5.4148047493634266e+00 0 0 0
3016 1 5.1743561120852073e+00 3.9201918100883799e+00 6.2737101847444068e+00 1 0 0
1184 1 6.2777947913207282e+00 4.0433464090163103e+00 6.3543984660420678e+00 0 0 0
1030 1 6.3533814654734977e+00 2.6904301556894143e+00 5.6096921410372316e+00 0 0 0
1504 1 6.8074718055983041e+00 3.7283121838003548e+00 5.3888641453122146e+00 0 0 0
2071 1 8.1726356376872715e+00 3.8582084090458055e+00 6.8992275950691049e+00 0 0 0
2128 1 1.0189054178484307e+01 1.9840929168749972e+00 5.1013144803256223e+00 0 0 0
4030 2 8.5489510543706704e+00 3.5231564142430436e+00 6.1976328534864855e+00 0 0 0