LAMMPS data file via write_data, version 12 Dec 2018, timestep = 456720

4320 atoms
2 atom types

0.0000000000000000e+00 1.9309999999999999e+01 xlo xhi
0.0000000000000000e+00 1.9309999999999999e+01 ylo yhi
0.0000000000000000e+00 9.6549999999999994e+00 zlo zhi
6.6812599999999982e+00 0.0000000000000000e+00 0.0000000000000000e+00 xy xz yz

Masses

1 1
2 1

Atoms # atomic

4263 2 5.3758075520850666e+00 4.2799220722983904e+00 2.1781972613678438e+00 1 0 0
577 1 1.9724135591291372e+00 6.1612679263605585e-02 1.9800845952788055e+00 0 0 0
1433 1 8.7654768202253130e+00 3.9503488989190552e+00 1.3693102315140144e+00 0 0 0
2159 1 9.1937196942614605e+00 2.7970098327760051e+00 4.0802110553473474e+00 0 0 0
1684 1 1.0056969379209162e+01 2.8718363856507998e+00 2.4442614768903494e+00 0 0 0
1502 1 7.9096604615215469e+00 4.2493265003668910e+00 1.8940660527890472e+00 0 0 0
1103 1 7.7219115987591769e+00 1.6007293382691570e-01 4.3270867041582406e+00 0 0 0
2513 1 8.2838241897712734e+00 2.5757815897837993e-01 1.2346001355011975e+00 0 0 0
1979 1 8.5663803959287925e+00 1.9414557208195296e+00 2.5220483200676105e+00 0 0 0
851 1 1.1015663396538968e+00 1.4328241641358483e+00 6.1570315520777930e-01 0 1 0
253 1 1.6562333394636211e+00 7.2728971119399966e-01 1.2762590523423261e+00 0 1 0
1190 1 2.0969979669551462e+00 1.6777622226557507e+00 1.1555336335899014e+00 0 0 1
3918 2 1.9085591877497139e+00 1.7914134012269387e+00 3.1966867115253184e-01 0 1 0
30 1 5.4176155975462752e+00 3.5008420472216613e+00 3.8841252369827113e+00 0 0 0
1127 1 2.0426942061853617e+00 9.5229918560760141e-01 2.4372638921191153e-01 0 0 1
1554 1 2.9552242501694144e+00 1.2110307812949268e+00 8.8653375197206297e-01 0 0 1
4116 2 2.4869437544008877e+00 9.5413413618989718e-01 1.5483076867748200e+00 1 0 -1
95 1 3.4979165062950717e+00 5.9656335045612197e-01 1.6230077563992964e+00 0 0 0
4238 2 1.6996478684249352e+00 4.5396629257395116e+00 1.4833616201485933e+00 1 0 0
2275 1 9.9637875157383604e+00 3.3480119397552324e+00 1.5289361618099204e+00 0 1 0
870 1 3.8606543375856992e+00 1.5494881693859639e+00 1.3986738593596211e+00 0 1 1
1798 1 4.4087517711060382e+00 6.3253532930423007e-01 1.0476422709805417e+00 0 1 0
1584 1 5.5877306406532445e-01 1.4345516924894426e+00 3.9847183576904213e+00 0 0 0
1711 1 8.1798074337081665e+00 2.3809582200784876e+00 5.2976348636426773e-01 0 1 0
1615 1 5.5211063356835250e+00 9.8776059071862865e-01 1.1517559837815450e+00 0 0 1
1678 1 8.0144427362488102e+00 2.6739887442197205e+00 3.0259482738302683e+00 0 0 1
987 1 4.7099389001709113e+00 1.5878651285710417e+00 3.3704727269114881e-01 0 0 0
622 1 1.1798463163614363e+00 3.1237369771803687e+00 6.6672221257249098e-01 0 0 1
1485 1 9.2272387079447462e+00 3.4240344389114813e-01 2.7001152012402487e+00 0 0 0
3468 2 6.7569341652382588e+00 8.5099916037610412e-01 9.7611004171128368e-01 -1 0 1
1519 1 8.0961653146954831e+00 2.8982307768345500e-01 2.3239547886390057e+00 0 0 0
1470 1 8.1465135356301097e+00 2.3096060042482893e+00 1.5929117247393878e+00 0 0 0
1122 1 8.8090482759442725e+00 3.8825252862603860e-01 1.4216316629943263e-01 0 0 0
2131 1 1.0776753520990100e+01 4.5111594100073624e+00 3.2811463022943079e+00 0 0 0
115 1 4.4061724087396636e-01 9.0106238431987806e-01 1.2868257014772193e+00 0 0 0
2081 1 9.6206597463265844e+00 1.8678438928502892e+00 4.0951500896254984e+00 0 0 0
2460 1 9.9026475199943551e+00 3.5662201723088360e+00 3.9500437403875575e+00 0 0 0
3590 2 5.1934828492306542e+00 4.5302795814308920e+00 4.0667262593780125e+00 0 0 -1
1160 1 7.2923810414331074e+00 3.9693500955533667e-01 1.4767425423611789e+00 0 0 0
1505 1 3.4058762923659245e+00 3.8654211842634960e+00 3.8681176141884981e+00 0 0 0
691 1 3.0785077126658882e+00 4.7572805503074891e+00 3.7337403333551213e+00 0 0 0
3750 2 1.3957936381861504e+00 2.2545406942070469e+00 8.8063503346485061e-01 0 0 1
34 1 2.2683205490826444e+00 2.5544013045396041e+00 5.5805891921142059e-01 0 0 0
1065 1 1.7097409957605958e+00 2.7864741940880777e+00 1.4821296174908969e+00 0 0 0
968 1 3.3083999511423796e+00 2.3745387864055898e+00 6.5568956202921402e-01 0 0 1
3708 2 2.9266594300891868e+00 2.0011950465851700e+00 1.3332348009050397e+00 0 0 0
1166 1 2.8163215420348191e+00 3.0280168495652582e+00 1.3121160664330473e+00 0 0 1
3768 2 3.2220346133325553e+00 3.2215226820247573e+00 4.8479910681227267e-01 0 1 0
3676 2 7.3451301801107984e+00 9.8380212145416757e-01 2.1032382883198553e+00 0 1 1
3757 2 4.7729924374988206e+00 1.4414684277435108e+00 1.2790363501633424e+00 0 0 1
1764 1 4.3859354515403766e+00 2.3691060599825047e+00 8.6151665599070260e-01 0 1 0
1617 1 5.3914097167305517e+00 2.0553196191078320e+00 1.0950923234496588e+00 0 0 1
2174 1 3.5538910766360847e+00 3.0828088172293233e-01 5.5013727354805664e-01 0 1 0
1499 1 6.4254030339361901e+00 1.7944198816955863e+00 9.1804794732289807e-01 0 0 1
1544 1 8.2976255699921460e+00 1.2165804461794276e+00 7.0029298983199095e-01 0 0 0
1946 1 9.3493312492071130e+00 3.7617694634852352e+00 2.2966342183680077e+00 0 0 0
1965 1 8.2237579097263804e+00 1.2166594312027628e+00 1.7827445205599015e+00 0 0 0
1145 1 7.8999291809494210e+00 3.9912933321283992e+00 4.2883508535959516e+00 0 0 0
1458 1 5.2658962276817487e+00 2.5738567789868536e-02 8.9681355313937605e-01 0 0 0
4242 2 8.9995598507557073e+00 4.3593751790924479e-01 1.8759688533361185e+00 0 0 1
2048 1 1.0401868152803889e+01 3.9609554277615135e+00 2.3678804654818850e+00 0 0 0
3121 1 8.0112695535823946e+00 3.0140518484874255e+00 4.6855131562660430e+00 0 0 0
1402 1 4.4592642705860737e+00 6.3415658374093756e-02 2.1821700012879980e-01 0 1 1
1513 1 6.3250814105590791e+00 4.0558650391354556e+00 7.9101893521392430e-01 0 0 0
952 1 7.3623447853317074e+00 1.4621851292751524e+00 1.3329614663197171e+00 0 0 0
656 1 2.4826870683752054e+00 3.7469557572331582e+00 4.8801474945558110e-01 0 0 1
1050 1 5.0229344611097932e+00 2.6365068278600114e+00 5.4294021765733627e-02 0 0 0
1562 1 5.6313269333862888e+00 4.5931470940348644e+00 1.3578959653226348e+00 0 0 1
1527 1 9.9338854964779113e+00 3.0750204774013090e+00 3.3244784250176601e-01 0 0 0
668 1 2.1737380995214881e+00 3.8312431139011403e+00 1.4920951000981175e+00 0 0 0
2201 1 7.9068461777727652e+00 3.3141805081199727e+00 1.2102853538257912e+00 0 1 0
1472 1 8.4932228561616494e+00 3.1705057877127119e+00 2.1714530812350041e+00 0 0 0
1019 1 3.9828259237745862e+00 3.3820726301456259e+00 9.3690978713239659e-01 0 0 0
1198 1 3.2306234199562898e+00 4.0356281846780826e+00 1.1423995052678522e+00 0 1 0
3627 2 4.0895396096223315e+00 4.3024314203734990e+00 6.6336900523150999e-01 0 0 1
1870 1 7.4508092590296204e+00 6.5482749299356069e-01 4.2735527116712102e-01 0 1 1
3503 2 7.1979533018916646e+00 1.4383641952843043e+00 3.7095095171537973e+00 -1 0 2
567 1 5.0176262005879106e+00 3.1414266877278170e+00 1.1138472671919895e+00 0 0 0
669 1 4.6920287028260343e+00 4.1316204784653348e+00 1.2745701391461153e+00 0 0 1
3865 2 5.3635456215210473e+00 3.9993846250483496e+00 7.3014455242159471e-01 0 0 0
1051 1 4.6907556448129935e+00 3.6961139389167990e+00 2.4746420466941804e-01 0 0 0
1783 1 3.5766321939429480e+00 2.5253044377900391e-01 3.1807964979979579e+00 0 1 0
3588 2 1.6543494318409027e+00 3.9330696073797857e+00 3.4979495098889108e+00 0 0 0
3771 2 8.3307527241500594e+00 2.7803607581784942e+00 3.9005318414455195e+00 0 1 -1
503 1 7.2024694852402176e+00 2.4832954595722798e+00 9.8568372167732965e-01 0 0 0
1506 1 6.2476170735498382e+00 2.8469821394687624e+00 1.1620025551598889e+00 0 0 0
1564 1 7.0592255368291390e+00 3.3899361078693189e+00 4.3077738777212654e-01 0 0 1
1572 1 6.9308681423178680e+00 3.6046049718175333e+00 1.5256510751587986e+00 0 0 1
1671 1 8.9137904150702827e+00 3.0457651559908894e+00 8.9226590597449462e-01 0 0 1
3793 2 5.9517841895092189e+00 1.2418075329684274e-01 3.0508306617226894e-01 0 1 0
2006 1 9.4957627190455103e+00 3.9414265228404557e+00 6.4754012614133816e-01 0 0 0
94 1 7.2174288882127113e-01 6.4683102787777813e-01 3.3340272963718145e+00 0 0 0
2145 1 8.7343644324138801e+00 1.9911215767205108e+00 3.5697275809221325e+00 0 0 0
2468 1 8.9416988456980864e+00 1.8975518621255791e+00 1.1408284761941594e+00 0 0 0
3482 2 7.5827135841392561e+00 4.1119230111115810e+00 3.5615649710993028e-02 0 0 1
1441 1 9.2261208054882182e+00 1.5536302875563517e+00 2.4001906264424758e-01 0 0 0
2649 1 1.0079165658592601e+01 2.6075106366931240e+00 3.5152500795679344e+00 0 0 0
2108 1 5.9845488732832415e+00 2.9250921701126322e+00 4.5869676841506193e+00 0 0 0
1000 1 1.1597531815536564e+00 1.8249138446310731e+00 1.6239258656891260e+00 0 0 0
1137 1 8.4666546889002845e+00 4.3524114388126804e+00 2.7883766562616228e+00 0 0 1
817 1 8.9594329255682370e-01 9.9092994483468244e-01 2.2101344666352372e+00 0 1 0
159 1 1.9057235840626876e+00 1.2185287127883830e+00 2.1425311654914929e+00 0 0 0
992 1 1.2278723162226168e+00 1.5513269634651172e+00 3.0555075789748374e+00 0 0 0
966 1 1.6661053711023572e+00 5.2311375363742085e-01 2.9261963762032055e+00 0 0 0
1134 1 2.3211955876934827e+00 1.6803068316833036e+00 2.9779681522226285e+00 0 0 1
1040 1 3.0112180272498068e+00 1.4902203459037369e+00 2.0097632044262816e+00 0 0 0
1358 1 2.7383471033413347e+00 6.4252030437751806e-01 2.5456713230152630e+00 0 1 1
1621 1 6.8242093089885412e+00 3.9322552510429829e+00 3.2678528320185021e+00 0 0 0
3878 2 3.6653525802261528e+00 9.0968197316342858e-01 2.5113763211314462e+00 0 0 1
631 1 3.2669039841105394e+00 1.3428218926609761e+00 3.2430155160587515e+00 0 0 0
3756 2 5.0450864368624329e+00 1.4041233372440923e-01 1.6864805818240887e+00 0 0 1
1029 1 5.3221970240946783e+00 8.1385964047311554e-01 1.3149858088551344e-01 0 0 0
575 1 4.4019354746391191e+00 9.9222327626396789e-01 3.0125221092897130e+00 0 0 0
722 1 4.6819422609107475e+00 1.0140479341399438e+00 2.0498131144122071e+00 0 1 0
1147 1 5.2116421280450229e+00 3.3686533860216422e-01 2.9259517953871241e+00 0 0 1
1351 1 5.8948627113659677e+00 3.2895026646135805e-01 1.9983515397291058e+00 0 1 0
1689 1 8.6778494223336224e+00 2.1477548085915723e+00 4.6646589005646817e+00 0 0 0
2538 1 9.2103414984524257e+00 8.1992317046410501e-01 1.0011758488676976e+00 0 0 0
1457 1 8.4931554680631596e+00 3.5664657522949921e+00 3.4934989948079247e+00 0 0 0
955 1 6.0633461068156898e+00 4.4860455452563830e+00 3.7451644571787006e+00 0 0 0
717 1 1.5872629851536320e+00 4.2073170571923342e+00 6.7143060092219264e-01 0 0 1
4228 2 1.0955774895756367e+00 2.2137270797075959e-01 1.7758517766330595e+00 1 0 0
1071 1 5.7805844424009818e+00 1.3332943600030636e+00 4.6172974532344870e+00 0 0 -1
3847 2 7.7453439982404246e+00 4.3801725546809225e+00 3.3707629149022016e+00 0 0 0
1359 1 6.3592095021097936e+00 8.7882911293736810e-01 2.0523495591411531e-01 0 1 1
733 1 3.9940328223716417e+00 2.9247434018151850e+00 3.8423412312215008e-02 0 1 0
4044 2 1.0681789696614134e+01 3.7565683619528598e+00 1.5731927154225624e+00 0 1 0
2544 1 1.0047391639978795e+01 2.7195464094560569e+00 4.6688462275744635e+00 0 0 0
3730 2 1.0392151716013540e+01 2.6448171359134531e+00 1.6106099123040654e+00 0 0 -1
1376 1 1.5722817396717270e+00 2.3142506312600393e+00 2.3971579687353022e+00 0 1 0
3606 2 1.4075489655729012e+00 3.1682282118391956e+00 2.1987013641664026e+00 0 0 0
2941 1 2.4149523214649644e+00 3.2100758390675037e+00 2.3165696107973428e+00 1 0 0
3608 2 2.2262176390668715e+00 2.5771367277407480e+00 2.8522504431554880e+00 0 0 0
3128 1 1.5907869965289263e+00 3.2328780326524846e+00 3.0530634177724596e+00 1 0 0
555 1 2.4551206094836067e+00 2.2512978478671446e+00 2.0155556969217976e+00 0 0 0
505 1 3.5275045566403431e+00 2.4882883701657565e+00 1.7255404140775010e+00 0 0 0
663 1 3.1528372207430477e+00 2.4644622495514885e+00 2.6881858550047086e+00 0 0 0
3686 2 3.2622129298963864e+00 3.1568875040736009e+00 2.1234882923179383e+00 0 1 0
1446 1 4.1332637379515242e+00 2.8661640526436951e+00 2.5723627035572276e+00 0 0 0
568 1 3.9813472686522151e+00 1.7524080416624894e+00 2.4144733994527616e+00 0 0 0
3703 2 4.3097718523886286e+00 2.8990312705161232e+00 1.6793114713538326e+00 0 0 0
3533 2 5.2523132259733636e+00 1.1937851759773788e+00 2.7387808807368632e+00 0 1 0
1462 1 4.7226409214122462e+00 2.1795567543710175e+00 1.8550669313047998e+00 0 0 0
1511 1 4.9770227845714272e+00 1.9514750718809972e+00 2.8578000549254670e+00 0 0 0
1561 1 5.7366618113533070e+00 2.5125774586175473e+00 2.0003562038855569e+00 0 0 0
2197 1 6.1047841674478498e+00 9.5267367036663608e-01 2.8819701615646443e+00 0 1 0
566 1 5.5620197924598020e+00 1.4887995574474295e+00 2.0348732180087081e+00 0 0 0
1437 1 6.6635303838115929e+00 2.1788431205125440e+00 1.9705894989102029e+00 0 0 0
2101 1 6.5465114009354828e+00 1.1892924056432681e+00 1.8251691617464421e+00 0 0 1
3946 2 6.6926959546355516e+00 1.5010006367902775e+00 2.7489086303098009e+00 0 1 0
1721 1 6.0294421090155383e+00 2.0820966178089204e+00 2.8275113990812151e+00 0 1 0
2421 1 7.0265359623159283e+00 2.1864591841629508e+00 3.2267009088641907e+00 0 0 0
2689 1 8.5215668874937869e+00 1.0325262528089256e+00 2.9333579071307159e+00 0 0 0
970 1 4.8299869956766557e+00 4.1870996323286374e+00 4.8090469781997323e+00 0 0 0
1191 1 4.3418186846953253e+00 4.5342912003314391e+00 3.7592254772813614e+00 0 0 0
1696 1 6.7885611937740507e+00 3.7483862779575396e+00 4.2980559435301666e+00 0 0 0
1489 1 9.4692306994189384e+00 1.0294030904197200e+00 3.4375613003174696e+00 0 0 0
2037 1 6.1770206439348279e+00 4.2055301816826534e+00 2.4940150895605009e+00 0 0 0
1031 1 1.0585823678786159e+01 4.1655092514758678e+00 7.3999993565905386e-01 0 0 0
2112 1 9.9183658689817840e+00 4.3235927261050975e+00 1.5277258983452171e+00 0 0 0
1588 1 8.6962743065796051e+00 4.5897887446324903e+00 3.9029442902504590e+00 0 0 0
2141 1 7.3557877094802473e+00 4.3619427863088136e+00 9.1329807923142625e-01 0 0 1
242 1 2.5153872843888276e+00 2.4283834162124082e-01 1.0578083711464066e+00 0 0 1
2592 1 1.0475571483151407e+01 4.4465770740364583e+00 4.3833261450155758e+00 0 0 0
1039 1 2.9318251845999406e+00 4.2396269925990318e+00 2.0779786253753789e+00 0 0 0
2996 1 2.4455882224220726e+00 4.7236196804218151e+00 1.0294241589905637e+00 1 0 0
3619 2 2.3840934474122593e+00 3.7312500087560863e+00 3.0475954316498335e+00 0 0 1
586 1 1.7101469217730265e+00 4.0567094281882188e+00 2.4392242964166928e+00 0 0 0
3040 1 2.8017934023847459e+00 4.6170455177432039e+00 5.3088263543621360e-02 1 0 0
1682 1 6.3960953644968885e+00 3.0486999823085594e+00 3.5382818562431404e+00 0 0 0
1440 1 3.2833209358672582e+00 3.5993490691431358e+00 2.8533098935832046e+00 0 0 0
664 1 3.8960886176551814e+00 3.6513155858032573e+00 1.9767252921283771e+00 0 0 0
550 1 3.6220706437941939e+00 4.5718964309090486e+00 2.8913525755088103e+00 0 0 0
655 1 4.5475018456762575e+00 4.5148211398223763e+00 2.3203765454416994e+00 0 0 1
994 1 4.3229507343154676e+00 3.7221700959940067e+00 3.1138172626231437e+00 0 0 0
1428 1 5.8252864714802488e+00 3.6128961437399418e+00 1.6555328688459374e+00 0 0 0
1613 1 8.9566262833349839e+00 3.8018945058973728e+00 4.4698569050108006e+00 0 0 0
534 1 5.4956820899875778e+00 2.9930284137913010e+00 2.9355139257041687e+00 0 0 0
1271 1 4.9314256686893474e+00 3.4459095455457307e+00 2.1047691513195499e+00 0 1 0
1474 1 9.4538895014384714e+00 4.2806920600873752e+00 3.1939190850588637e+00 0 0 0
3838 2 5.9580875673454603e+00 3.7121708602293095e+00 3.1457940750770734e+00 0 0 0
3127 1 2.3699408253980447e+00 4.0375722835244670e+00 3.8345241997825870e+00 1 0 0
1072 1 7.4384311040434756e+00 2.9442992912731851e+00 2.1475164571719909e+00 0 0 0
1535 1 6.3955083365351086e+00 3.1799008396538522e+00 2.5081380419744108e+00 0 0 0
3964 2 7.1016140357504449e+00 3.0410314442225781e+00 2.9647332496482113e+00 0 1 0
1858 1 7.0466964144247832e+00 1.3154374483891782e+00 4.5218288345913686e+00 0 1 0
1988 1 1.0151462780891329e+01 1.8519895263743460e+00 1.8543412904440044e+00 0 0 0
2076 1 7.4459671140972734e+00 1.0122319060032492e+00 2.9428219881639910e+00 0 0 1
2850 1 9.2389925698872695e+00 1.2365684398009096e+00 2.0528738844997956e+00 0 1 0
1098 1 7.2286231309107505e+00 1.6539871983334002e+00 2.7701870834080100e-01 0 0 1
1607 1 8.4173068487308633e+00 4.3580751547439336e+00 4.4964043559285505e-01 0 0 1
599 1 1.9747803768687227e+00 5.2508786077708514e-01 4.1093345150504641e+00 0 0 0
4129 2 9.8643636794237270e+00 3.5051888393219839e+00 3.0363601142208343e+00 1 0 1
4133 2 9.5990219571468227e+00 4.3859808498617738e+00 4.6531128028523421e+00 0 0 0
1488 1 5.6105554517465279e+00 4.4263836773352656e+00 4.7442260067135734e-02 0 0 0
2631 1 9.6423480989374912e+00 1.8967528369860429e+00 2.7890131668483495e+00 0 0 0
1001 1 6.5421060805699023e+00 2.5714659910402031e+00 1.0686955178133360e-01 0 0 0
1880 1 7.7350898758270921e+00 3.6929930450279156e+00 2.7681256346203531e+00 0 0 0
1571 1 7.3032288031118071e+00 4.6622752335739470e+00 2.7009747405807967e+00 0 0 0
3464 2 1.3901167986215934e+00 1.0771260966366809e+00 3.7863778692409240e+00 0 0 -1
652 1 1.5499276180523425e+00 1.6550833567656331e+00 4.3737295380985781e+00 0 0 0
1622 1 7.4395177232182794e+00 3.0837219460489091e+00 3.8347323951285222e+00 0 0 0
991 1 6.8570091764237260e+00 2.2090671484370714e-01 2.5229443677370513e+00 0 0 0
4264 2 2.4301390184656362e+00 7.8875404127034598e-01 3.3688862796590513e+00 1 0 1
1054 1 3.0099686133013046e+00 5.0900686344987933e-01 4.0380321441651574e+00 0 0 0
481 1 2.4859402433044848e+00 1.4631518967740649e+00 4.0059698140899487e+00 0 0 0
235 1 3.9960777221009489e+00 9.5961328202318785e-01 3.9702067988310454e+00 0 0 0
887 1 9.0122607738598315e-01 4.4980069194798211e-01 4.4408273029121919e+00 0 1 0
3856 2 4.5726080168126488e+00 2.7316872201470205e-01 3.5494016764045782e+00 0 0 0
2360 1 4.9079286782624569e+00 5.7917406398911053e-01 4.4231444796619286e+00 0 1 0
1066 1 9.8490293831520290e+00 2.2081434823707209e+00 8.9991416793461776e-01 0 0 0
3587 2 6.9536989921373191e+00 3.8531791692930151e+00 2.3893274267663398e+00 0 0 0
1950 1 6.8616616638130035e+00 5.9529928807497234e-01 3.7417749792982931e+00 0 0 0
4029 2 6.3021078922252620e+00 7.2693578290239069e-01 4.3692523800952303e+00 0 1 0
580 1 5.8097139855446418e+00 3.1919619780308151e-01 3.8381248332617575e+00 0 0 0
2132 1 8.6866325177301977e+00 2.6989635493984482e-01 3.8347437495549475e+00 0 0 0
1538 1 7.6302616109829504e+00 1.1036254523474838e-01 3.2759155087416776e+00 0 0 0
1425 1 7.7909980044133116e+00 2.0455456640347252e+00 3.9974516052511802e+00 0 1 0
4296 2 6.5989170990221835e+00 4.5230188933041697e+00 4.6425924622445658e+00 1 0 0
1242 1 3.7204890448026573e+00 1.4162083776478382e+00 2.8196251827520763e-01 0 1 0
906 1 7.5800380191882581e+00 1.8781258627142634e+00 2.3436672741768292e+00 0 1 0
4042 2 2.1808316060801038e+00 1.0476353620030590e+00 4.7493890448875637e+00 0 1 0
3772 2 1.2198287785700097e+00 5.3558887254641008e-01 5.4603172114967513e-01 0 1 1
1526 1 3.3933766132682495e+00 3.0081533444709270e+00 4.6346957287076087e+00 0 0 0
2084 1 8.0673610917304437e+00 3.3546356288299646e+00 2.0831451926925729e-01 0 0 1
2854 1 8.8813314415601301e+00 1.1838410915762776e+00 4.3934944206560678e+00 0 1 0
1357 1 4.1313524866646931e+00 1.6949003783366598e-01 2.2943545118834154e+00 0 1 1
1493 1 9.7669745347113910e+00 5.6667058882566146e-01 4.2543058970201519e+00 0 0 0
548 1 4.9552682179525034e+00 2.8588701398178822e+00 4.6044039916564907e+00 0 0 0
1536 1 6.7844073829305902e+00 4.6343201838660271e+00 1.7594292604496877e+00 0 0 0
1165 1 1.7517664537508160e+00 2.3292536630755598e+00 3.5273953353842549e+00 0 0 0
802 1 1.7437387989009587e+00 3.1742492388231969e+00 4.1123499945667596e+00 0 1 0
572 1 2.6090949815694682e+00 3.0192237607311712e+00 3.5040117142952005e+00 0 0 0
1167 1 2.4635743153429948e+00 2.4946009189654768e+00 4.4171157617931947e+00 0 0 0
1117 1 3.5954560356031324e+00 3.9113261811091062e+00 1.0548952099314804e-01 0 0 1
3719 2 2.5751839798679192e+00 3.3553405674108379e+00 4.3201598894570772e+00 0 0 -1
4119 2 2.9727818008521223e+00 2.1086653508983648e+00 3.5346791437175384e+00 0 0 0
1007 1 3.4225028668946114e+00 1.9895190204160891e+00 4.2808052469887254e+00 0 0 0
2164 1 3.6402925942191287e+00 2.8682433127742670e+00 3.5555868611793930e+00 0 0 1
3884 2 4.1645696489227717e+00 2.5255156989080776e+00 4.2307058185533615e+00 0 0 1
1062 1 4.0383206564557925e+00 1.8996536275095526e+00 3.4471639809189654e+00 0 0 0
1194 1 5.2805290705182557e+00 1.2004820021384053e+00 3.5980556486771693e+00 0 1 0
814 1 4.8125870948909029e+00 1.7969337546031030e+00 4.3607047983744778e+00 0 1 0
1081 1 4.6587146558131698e+00 2.6677603605852185e+00 3.4671722531381746e+00 0 0 1
860 1 5.5498899738602692e+00 2.3438190832197474e+00 3.8381030382524921e+00 0 1 1
3460 2 7.9669952493781899e+00 1.7867724176870166e+00 3.1795285147042067e+00 -1 0 0
2250 1 7.9710335644547188e+00 1.0962388511382284e+00 3.8098891496272720e+00 0 1 0
2098 1 5.7807670754237961e+00 3.3278306907517985e+00 2.7070636479458532e-01 0 0 1
1573 1 6.2649171404523996e+00 1.4643304258917069e+00 3.7209909652400919e+00 0 0 0
537 1 6.7865508216746377e+00 2.2869393380495819e+00 4.2823099818633628e+00 0 0 0
508 1 5.2542674424439282e+00 4.1785438275031117e+00 3.1559850838417298e+00 0 0 0
964 1 9.3084019101246440e+00 2.5773315624332529e+00 1.8055220208117102e+00 0 0 0
2063 1 9.1789828825927611e+00 2.8959427884835662e+00 2.9471360177508497e+00 0 0 0
124 1 4.2779148772945472e+00 3.4513132342476225e+00 4.1416472510255797e+00 0 0 0
137 1 3.7059304556899364e-01 7.3649180951632276e-01 2.5398719522488389e-01 0 0 1
628 1 5.8034477337481265e+00 4.0735318635644857e+00 4.6135807618330400e+00 0 0 0
1463 1 7.2660003395335657e+00 4.7565221516598166e+00 3.9777608235495356e+00 0 0 0
50 1 3.8971243524413790e+00 4.7080111138521765e+00 1.5095400001979242e+00 0 0 0
1022 1 2.3924827058746434e+00 4.6608402666713724e+00 2.9458170683986555e+00 0 0 -1
2171 1 1.0713212723239621e+01 3.2853736213816145e+00 3.1276944453564250e+00 0 0 0
3867 2 8.3581185197960810e+00 4.4392404113783899e+00 4.7947736127994451e+00 0 0 0
3688 2 1.9694448397913942e+00 4.1134603253997755e+00 4.6064746534081626e+00 0 1 0
4214 2 7.0940742852295247e-01 1.9011417268958404e+00 2.4209392839771757e+00 1 0 0
513 1 3.8416289207168326e+00 4.5874932592720432e+00 4.7226969912461403e+00 0 0 0
574 1 2.8384859297297784e+00 4.0387849832085259e+00 4.7795129059884163e+00 0 0 0
4281 2 9.6339926309024690e+00 7.6991512498331349e-01 1.4158465348358537e-01 0 1 0
4063 2 8.4548932554865068e+00 8.5980074783002722e-03 3.0171005845377672e+00 0 1 1
4177 2 4.0390767297354184e+00 1.3885942550944081e+00 4.7419525349697125e+00 0 1 0
2462 1 1.0951592280820138e+01 4.7950235234793430e+00 1.5685721287842946e+00 0 0 0
2012 1 9.0295851645153125e+00 4.8006566984744046e+00 1.9339334035886591e+00 0 0 0
624 1 5.7246968726970184e+00 1.8428132855480042e+00 1.3231231574533252e-03 0 0 1
971 1 9.0872645227707878e+00 2.5225299411616979e+00 6.9042517915812954e-03 0 0 0
2100 1 9.0361162403041480e+00 3.4622363206832971e+00 6.1244300628690835e+00 0 0 0
1626 1 5.8023718831308990e+00 3.3108808611092816e-01 9.0878444145758532e+00 0 0 0
617 1 5.3031557327598637e+00 4.3263537965589913e+00 7.9329230088269460e+00 0 0 0
1171 1 8.1863716389880885e+00 2.7682528766093899e+00 5.7339100624190742e+00 0 0 0
1069 1 2.1831473391137881e+00 1.8045673888470404e+00 5.2229941638083872e+00 0 0 0
1082 1 9.8819815047903994e+00 2.6943152979752822e+00 5.7019986179749171e+00 0 0 0
3584 2 9.7767278131476987e-01 1.4328433515890280e+00 9.3566443041921996e+00 0 0 0
2038 1 1.0308453312367231e+01 3.9251713833369353e+00 6.1405212144169701e+00 0 0 0
4220 2 7.5896227994480912e+00 9.5753800355474394e-01 7.4328602544222537e+00 0 0 -1
3728 2 8.9317267332301498e+00 2.8844378708148368e+00 7.7358412523226665e+00 0 0 0
1628 1 7.7252563950513835e+00 3.9509352379175851e+00 7.9803252236155435e+00 0 0 0
2106 1 6.7748060936704526e+00 4.4474103351957579e+00 9.5413869795328523e+00 0 0 0
2165 1 9.7728418803514909e+00 1.9867306364600084e+00 6.6080562071388673e+00 0 0 0
3513 2 1.2910848402572292e+00 1.9788945748754547e+00 5.5225006608630887e+00 0 0 0
842 1 1.3659399067049942e+00 1.0155627962675249e+00 5.1925636378258107e+00 0 1 0
913 1 1.6507750933420193e+00 1.4296409457906534e+00 6.1395640309754862e+00 0 1 0
517 1 4.5293597541330293e+00 4.5022736366474954e+00 9.2443803393332207e+00 0 0 0
1904 1 7.2349852392878944e+00 1.2129133573079911e+00 5.7074864203081930e+00 0 1 0
3611 2 3.1727030104937688e+00 6.6228485868286913e-01 5.5556281010698658e+00 0 0 1
3752 2 2.8544138836028727e+00 1.4872236019986191e+00 5.6909686200468030e+00 0 0 0
526 1 2.3131949532516880e+00 8.4698595386430620e-01 5.6302922723144695e+00 0 0 -1
1080 1 3.0617645483760501e+00 9.2553969913017875e-01 6.3495699860637638e+00 0 0 0
1514 1 5.7688914706453902e+00 2.7517835909190644e+00 9.0624387216059610e+00 0 0 -1
1128 1 3.7378689898223789e+00 1.3528314668636330e+00 5.6362535502909914e+00 0 0 1
1557 1 8.9044219459037599e+00 3.6188150202510814e+00 8.2004681715493994e+00 0 0 0
2053 1 8.0402612798800135e+00 1.6575354437176024e+00 6.2407609003329982e+00 0 0 0
1683 1 4.7348142125008250e+00 6.1759353186580535e-01 6.2132036296876931e+00 0 0 0
1199 1 4.7006185513448884e+00 1.1679658048028150e+00 5.3178547156988687e+00 0 1 0
3749 2 7.5166092031220550e+00 2.9493822154400995e+00 8.3934183568225986e+00 0 0 0
4122 2 5.4036527096013467e+00 6.4881606602039110e-01 5.1349941834903170e+00 0 0 0
1349 1 5.6430533212927214e+00 1.3831885951506631e-01 5.8956095760304716e+00 0 1 0
889 1 6.3597274990939550e+00 5.5807782501382308e-01 5.1822818016422652e+00 0 1 0
1021 1 7.5329964075724867e+00 2.4851102790998980e+00 9.3198157172719895e+00 0 0 0
1654 1 6.4933063817325927e+00 8.2247290752188706e-01 6.3958020353036922e+00 0 0 0
1090 1 3.8845069532327456e+00 5.4074709818328681e-01 4.9307676349407359e+00 0 0 0
1627 1 7.5018557676815218e+00 1.3539869243174127e-01 7.7286508693868612e+00 0 0 0
3718 2 8.7163825122276499e+00 4.4696419782705676e-01 8.8782834817436989e+00 -1 0 -1
2612 1 9.9401508547647914e+00 1.9257749809004567e+00 8.4873875841880047e+00 0 0 0
1958 1 1.0028135293105771e+01 2.1723989562672008e+00 9.5186053966571489e+00 0 0 -1
1566 1 5.9443856578469596e+00 3.4008842107440933e+00 8.2652362149210763e+00 0 0 0
2619 1 9.6242699197796568e+00 4.1808776474682023e+00 6.9026353757907346e+00 0 0 0
3518 2 2.9442455045248432e+00 2.1795030452327119e-01 6.7999820927608976e+00 0 1 0
3893 2 9.6249143835521771e+00 4.4036530306847492e+00 6.0551703662756466e+00 0 0 1
3975 2 1.0350068816432731e+01 3.6587936367754876e+00 7.1281383926461723e+00 0 0 -1
3761 2 6.1958313905862230e+00 4.5401393620219181e+00 6.9645143822920890e+00 0 0 0
1963 1 7.6986785350011919e+00 2.0354210328654965e+00 5.1349454605576277e+00 0 0 0
1180 1 1.9113872784532338e+00 2.5155653915404597e+00 5.9680896636015124e+00 0 0 0
1482 1 2.4560814763282597e+00 3.2313176698613453e+00 5.1768825293153915e+00 0 0 0
370 1 1.6672678698574348e+00 6.4648543868530894e-01 8.1934878458891944e+00 0 1 0
675 1 1.8311667811272492e+00 3.5374135866668479e+00 6.2176362512174821e+00 0 0 0
676 1 1.4721633007897723e+00 3.6533961712131657e+00 5.2359656369551306e+00 0 0 0
1114 1 3.0623094487325124e+00 2.3129120872416209e+00 5.3326746926260906e+00 0 0 0
1187 1 3.7478970676593875e+00 2.2616144958371214e+00 6.1365116087751721e+00 0 0 0
659 1 2.9214185454827879e+00 3.0289852883728243e+00 6.1337574954912730e+00 0 0 0
3713 2 3.6655301904536435e+00 2.9406356751311704e+00 5.6158226148907522e+00 0 0 0
698 1 2.7146288407553181e+00 2.0006442642834816e+00 6.3980999521960857e+00 0 0 0
1177 1 4.1601195524428833e+00 2.2795624188258099e+00 5.1135041282325489e+00 0 0 0
1853 1 4.6987132749331888e+00 1.7462544822610477e+00 6.1754572677451227e+00 0 1 1
3123 1 4.7909268959881404e+00 2.6760828926047298e+00 5.8029591670932259e+00 1 0 0
3577 2 5.5651562679185131e+00 2.2244509839393540e+00 6.0166920411903728e+00 0 0 -1
1676 1 5.4179299954744451e+00 2.1703340226980994e+00 5.1362402834180436e+00 0 0 0
1647 1 5.6490273708293985e+00 1.2305689946649871e+00 5.7299132721686785e+00 0 0 0
3707 2 5.9671461322321058e+00 1.1756266569190073e+00 9.1148106275982670e+00 0 0 -1
1438 1 8.3303100183151990e+00 4.1709745760671542e+00 9.1190900833162107e+00 0 0 -1
1153 1 6.2482728410693085e+00 1.9131004252177144e+00 6.4569624528657643e+00 0 0 0
1578 1 1.0358355708800802e+01 4.2906022388288596e+00 7.7161968590383818e+00 0 0 0
998 1 6.9595211019650920e+00 4.2022680068655180e+00 6.6605530922894927e+00 0 0 0
231 1 5.3259808333378427e+00 4.6458140649438455e+00 6.9170641365902519e+00 0 0 0
2610 1 8.7593125956467279e+00 2.1172063074787912e+00 8.1966894792625098e+00 0 0 0
1688 1 8.2216410902709534e+00 3.7747221344051511e+00 5.4210365591234595e+00 0 0 0
1518 1 7.3646656637343808e+00 4.5741706837942715e+00 5.0205783560056609e+00 0 0 0
2123 1 8.2080244212694886e+00 5.8855769489748511e-01 5.9669329135760591e+00 0 0 0
323 1 1.8503527294151350e+00 3.1697297340743864e+00 9.5588474402064403e+00 0 1 -1
2621 1 1.0097806623498006e+01 1.4600627880021118e+00 7.3648663055634609e+00 0 0 0
1115 1 7.3410168289304796e+00 3.5014348763945149e+00 5.9632988903895772e+00 0 0 0
601 1 2.2479284102675994e+00 4.2987897688923535e+00 5.5402562373204658e+00 0 0 0
1093 1 3.2626138340349300e+00 3.9906372326406085e+00 5.7717489935665887e+00 0 0 0
4130 2 7.5606734883543218e+00 4.3685787085098751e+00 7.2044131071551929e+00 0 0 -1
2088 1 4.1744725559471121e+00 3.5433427035703224e+00 5.2433085094003022e+00 0 0 0
127 1 3.9914598429309160e+00 3.2523548179553758e+00 6.3265221736046735e+00 0 0 0
784 1 6.7149941545471927e+00 6.2535206043377678e-01 7.3735342560969128e+00 0 1 0
1085 1 5.3838135498122970e+00 3.4721138573219168e+00 5.3660199520217509e+00 0 0 0
3016 1 4.8668204901439545e+00 3.9433189952758281e+00 6.2946839088955331e+00 1 0 0
1184 1 5.9516267574221544e+00 3.8875611904965170e+00 6.2338826965480623e+00 0 0 0
1030 1 6.1912615619667228e+00 2.8163134989862812e+00 5.6093336173723047e+00 0 0 0
1504 1 6.5760313212254378e+00 3.8511968085823631e+00 5.3264495694046916e+00 0 0 0
2071 1 7.6392258809424423e+00 3.4995814022508207e+00 7.0321197384932175e+00 0 0 0
2115 1 9.1583310593574883e+00 2.4003217782779582e-01 8.0446058662636357e+00 0 0 0
4030 2 8.2792437757152406e+00 3.1563897531784724e+00 6.6036588733211357e+00 0 0 0
1129 1 9.6735110676431582e+00 2.3928726158835265e+00 7.6055622011771087e+00 0 0 0