LAMMPS data file via write_data, version 12 Dec 2018, timestep = 220440

4320 atoms
2 atom types

0.0000000000000000e+00 1.9309999999999999e+01 xlo xhi
0.0000000000000000e+00 1.9309999999999999e+01 ylo yhi
0.0000000000000000e+00 9.6549999999999994e+00 zlo zhi
3.2247699999999995e+00 0.0000000000000000e+00 0.0000000000000000e+00 xy xz yz

Masses

1 1
2 1

Atoms # atomic

1458 1 6.7152995190580480e+00 1.6282258430662097e-01 1.0525247210272268e+00 0 0 0
21 1 2.3899158880816431e+00 2.1834259616952032e+00 7.5558674126342706e-02 0 0 0
1433 1 9.6569731886650807e+00 4.4955855985498880e+00 1.3148698806267447e+00 0 0 0
1218 1 4.4665930862518888e-01 1.2073331762649993e+00 1.0710824300097144e+00 0 1 0
3622 2 1.2973885701329337e+00 1.2950832577456048e+00 6.2982372688992927e-01 0 0 1
1502 1 8.7239830899454844e+00 4.5954987980919073e+00 1.8582925199586753e+00 0 0 0
967 1 6.3511621547812069e-01 2.0711270226308742e+00 4.8687970366606081e-01 0 0 0
3205 1 1.6655808866253239e+00 2.0763386051712129e+00 8.8315991419050333e-01 1 1 0
1979 1 9.8456661727203461e+00 2.5249465798994537e+00 2.2808480751541360e+00 0 0 0
851 1 2.2657730518317485e+00 1.2522840358332583e+00 6.1642407085668949e-01 0 1 0
253 1 2.7306327842444467e+00 5.1944892368688778e-01 1.1985775035396193e+00 0 1 0
1190 1 3.1671674150724831e+00 1.4970191773544610e+00 1.1856673550484826e+00 0 0 1
3918 2 3.0506575491729828e+00 1.6891067082339810e+00 3.0988033015776739e-01 0 1 0
30 1 6.3781376724642103e+00 3.6793884945063238e+00 4.1265545293700781e+00 0 0 0
1127 1 3.3069581903885084e+00 8.3242285690982509e-01 2.9112514248489352e-01 0 0 1
1554 1 4.1616223811605337e+00 1.1890368471594752e+00 9.3685603460166356e-01 0 0 1
4116 2 3.6814368309969625e+00 8.7864727197254533e-01 1.6047487454022875e+00 1 0 -1
95 1 4.6953976749750375e+00 5.1452890990846312e-01 1.6405554976119088e+00 0 0 0
3478 2 5.2331063346627460e-01 3.0003295202342546e+00 6.7533131562527571e-01 0 0 -1
474 1 1.2259664809958633e+00 1.2814715750170097e-01 3.8000159413939398e+00 0 1 0
870 1 5.1660249983380000e+00 1.4645775701335511e+00 1.4219709153873343e+00 0 1 1
1798 1 5.8196040527082920e+00 8.3540959173012030e-01 9.6915613534042522e-01 0 1 0
10 1 5.9815054062310180e-01 1.0525875697498099e+00 6.8729846777118728e-02 0 0 1
1711 1 9.2681908883902686e+00 2.7626185368208080e+00 4.9574679348555278e-01 0 1 0
1615 1 6.8916964230287974e+00 1.2372405997930120e+00 1.0378339663761182e+00 0 0 1
1678 1 9.0592829375083586e+00 2.9874756793697936e+00 2.9938829638814299e+00 0 0 1
987 1 5.9846751565272687e+00 1.4805050978191918e+00 2.4093718879766610e-01 0 0 0
767 1 7.7529301225799081e+00 4.9120170974721566e-01 1.0832583695357445e+00 0 1 0
1359 1 7.5846726489513641e+00 1.2787130507469890e+00 2.9032583488588509e-01 0 1 1
3468 2 8.0980843726413028e+00 1.3085297686929325e+00 9.7337343692662137e-01 -1 0 1
3799 2 9.5111990555319337e-01 4.7604130872882804e+00 6.6358606254166341e-01 0 1 0
1470 1 9.1747345338059354e+00 2.8373160031503568e+00 1.5757903414588226e+00 0 0 0
3764 2 8.2625455797070408e+00 9.7117106532014691e-02 1.7064316637315631e+00 0 1 -1
3137 1 7.3268806546195941e-01 2.4405618596333906e-01 7.8990843189923610e-01 1 0 1
115 1 1.7130455380335985e+00 5.7651242444314965e-01 1.1648801975841319e+00 0 0 0
3847 2 8.8038618189253111e+00 4.8130121342075771e+00 3.3601405075952866e+00 0 0 0
254 1 1.1213603506398777e+00 3.1766434945557238e+00 1.3186069618783369e+00 0 1 0
2960 1 5.5725051546723114e-01 2.1413574414080392e+00 1.5025862026857340e+00 1 0 0
1160 1 8.6505049783574020e+00 8.7370824000302183e-01 1.5058484639868410e+00 0 0 0
3599 2 1.6779430032282558e+00 3.5911191565638219e+00 7.9882435607079694e-01 0 0 0
622 1 2.2779255933755298e+00 3.0056482391801373e+00 6.8633946961994063e-01 0 0 1
3750 2 2.5643106028674048e+00 2.0909552545518317e+00 9.3013335105075634e-01 0 0 1
34 1 3.2958191076694634e+00 2.4724832738075961e+00 5.8474718087519717e-01 0 0 0
1065 1 2.7661921993057454e+00 2.5761118692590594e+00 1.5727096782653192e+00 0 0 0
968 1 4.4634996515629455e+00 2.2315981797136581e+00 7.6850923150991801e-01 0 0 1
3708 2 3.8987777978435356e+00 2.0061619057588538e+00 1.3123428234972114e+00 0 0 0
1166 1 3.9193724141110140e+00 2.8929896463821274e+00 1.4079220568017210e+00 0 0 1
3768 2 4.3569591623577253e+00 3.0779215322651976e+00 6.2927868678489940e-01 0 1 0
3676 2 8.7885974967331872e+00 1.4086784733495199e+00 2.1539965134398606e+00 0 1 1
3757 2 5.9884113073510754e+00 1.6519156943765858e+00 1.1145278755141652e+00 0 0 1
1764 1 5.4944549118003465e+00 2.3170630235679495e+00 7.5679516176773232e-01 0 1 0
1617 1 6.5988663267217600e+00 2.2829136768102911e+00 8.8950637314839320e-01 0 0 1
2174 1 4.8348091510148770e+00 3.2141777982322250e-01 6.1789828081677189e-01 0 1 0
1499 1 7.6264986723829837e+00 2.0987429469773615e+00 9.1501821310390374e-01 0 0 1
1544 1 9.4046805592033440e+00 1.6765895408482772e+00 6.1166187251169413e-01 0 0 0
691 1 4.1474422611109460e+00 4.8151872779893257e+00 3.7953332350264835e+00 0 0 0
1965 1 9.5394394219406813e+00 1.5612339234700692e+00 1.7680712578991937e+00 0 0 0
1145 1 8.8124143650848836e+00 4.4534338202399706e+00 4.2160303264633772e+00 0 0 0
1098 1 8.4799269333500060e+00 1.9157896841459883e+00 1.8156021237152989e-01 0 0 1
1783 1 4.7961686261247261e+00 1.3225085656127825e-01 3.1307669818912824e+00 0 1 0
3085 1 9.1899795350745461e-01 3.7610259980827530e+00 3.6497814504139042e-01 1 0 1
1050 1 6.1575312666048019e+00 2.6602636567891218e+00 2.9219235894000151e-02 0 0 0
171 1 1.5486281593423041e+00 4.3864465518022451e+00 1.1777679833471240e+00 0 0 1
1513 1 7.3357841958150747e+00 4.2647841294199456e+00 7.6173003460230271e-01 0 0 0
952 1 8.6607759439373933e+00 1.9446378642696445e+00 1.3408204477413248e+00 0 0 0
656 1 3.5615390715677391e+00 3.5765002054129997e+00 5.6197250339560167e-01 0 0 1
2996 1 3.4598190845557713e+00 4.6289807728758410e+00 1.2136967685966455e+00 1 0 0
717 1 2.5614609576180420e+00 4.1056443087619749e+00 7.9245876393352643e-01 0 0 1
1042 1 2.1348258219293808e+00 4.7754897479228653e+00 2.2543999407636278e-01 0 0 0
668 1 3.2269556623403695e+00 3.6104448220661469e+00 1.5203047460566166e+00 0 0 0
2201 1 8.8836923432128465e+00 3.8154546778478031e+00 1.1457879973658889e+00 0 1 0
1472 1 9.4916497390724821e+00 3.6663696905071204e+00 2.1019011809677353e+00 0 0 0
1019 1 5.0487472799117104e+00 3.2310346745797491e+00 1.1219930399781481e+00 0 0 0
1198 1 4.2938061455614154e+00 3.9404179297638362e+00 1.2312705700907327e+00 0 1 0
3627 2 5.1636431951056707e+00 4.2811066496962811e+00 9.2621184502895992e-01 0 0 1
1870 1 8.6325285359279036e+00 9.6447987184832740e-01 4.6870074416962221e-01 0 1 1
3503 2 8.3289906429029141e+00 1.7373359280272562e+00 3.8236651361210985e+00 -1 0 2
567 1 6.0985623681322334e+00 3.2497620857361729e+00 1.2385872037253647e+00 0 0 0
669 1 5.8255550576509103e+00 4.2769788021030557e+00 1.4419320015323926e+00 0 0 1
3865 2 6.5019625437794843e+00 4.0870561149658613e+00 9.3412369390127081e-01 0 0 0
1051 1 5.7970294588818199e+00 3.9008987923124314e+00 3.4067592122637841e-01 0 0 0
2141 1 8.2770403478945056e+00 4.7530902595569922e+00 8.8996120613946039e-01 0 0 1
3588 2 2.8336170271942400e+00 4.0729945710102564e+00 3.3139892253862886e+00 0 0 0
3771 2 9.4813547054260781e+00 3.1687658795540301e+00 3.7624006617196706e+00 0 1 -1
503 1 8.2999094423976469e+00 2.8764291106237558e+00 9.4945197667354231e-01 0 0 0
1506 1 7.2230643047987124e+00 3.0916273907505403e+00 1.1123796472975751e+00 0 0 0
1564 1 8.1140613286502106e+00 3.7630178684685265e+00 3.5134827347114223e-01 0 0 1
1572 1 7.9122340404291025e+00 3.8674037125078304e+00 1.5737721138367831e+00 0 0 1
1671 1 1.0024355969307011e+01 3.4718041379769713e+00 1.0960501512167327e+00 0 0 1
242 1 3.8228681010879799e+00 1.3216473664648218e-01 1.0895714567299937e+00 0 0 1
2084 1 9.1586473921008889e+00 3.7815764680520876e+00 8.0766600435968103e-02 0 0 1
94 1 2.0382016998686256e+00 3.2035594053277022e-01 3.2310330348864653e+00 0 0 0
2145 1 9.7528256051053415e+00 2.2517420239570685e+00 3.5595051492931646e+00 0 0 0
1906 1 6.9912692897598543e+00 8.4556051104327803e-02 4.7814485389122705e+00 0 1 0
520 1 1.2733962875300664e+00 1.3046721999774180e+00 1.7965556028110921e+00 0 0 0
955 1 7.1615394893509370e+00 4.7331400712710137e+00 3.7641636640563458e+00 0 0 0
715 1 1.3501256197663882e+00 1.0791042520288743e+00 2.9276200691891869e+00 0 0 0
2513 1 9.5609850024181409e+00 5.6971206563795906e-01 9.8845897494654700e-01 0 0 0
1000 1 2.3028823747633842e+00 1.5541394535242248e+00 1.6509465787387623e+00 0 0 0
4214 2 1.7968993459885703e+00 1.6268496317279697e+00 2.4100755240584664e+00 1 0 0
817 1 2.1312643329422927e+00 6.5650338737635983e-01 2.2247941167057914e+00 0 1 0
159 1 3.0469396111273577e+00 1.0413803364293981e+00 2.1007966467610291e+00 0 0 0
992 1 2.4531545651244104e+00 1.3597131196503562e+00 2.9528053616697707e+00 0 0 0
966 1 2.9804579667822133e+00 4.3316547495506197e-01 2.9721782514759756e+00 0 0 0
1134 1 3.5175580514374416e+00 1.4711665476016977e+00 3.0197318348028430e+00 0 0 1
1040 1 4.2691545473893546e+00 1.4422566054159141e+00 1.9588206041820126e+00 0 0 0
1358 1 3.9770541196359832e+00 6.3105009479958118e-01 2.5432811846851382e+00 0 1 1
1621 1 7.9611923942300740e+00 4.1972924883592642e+00 3.2687823597194829e+00 0 0 0
3878 2 4.8889234886415460e+00 8.6869177488615246e-01 2.4277732229180682e+00 0 0 1
631 1 4.5715939148502915e+00 1.2349145585311896e+00 3.1769938763171308e+00 0 0 0
3756 2 6.3154994237929838e+00 4.8145283753854778e-01 1.6815321709113140e+00 0 0 1
1357 1 5.5539059894809464e+00 3.9246318872813912e-01 2.1978524821603678e+00 0 1 1
575 1 5.5178194408834838e+00 8.5029514158019370e-01 3.2295569446120065e+00 0 0 0
722 1 6.0393335333343963e+00 1.2560291724858021e+00 1.8940586520094653e+00 0 1 0
1147 1 6.4686173081705016e+00 6.0697386947457144e-01 2.6903434875919663e+00 0 0 1
1351 1 7.1256700767268804e+00 7.0999464775680154e-01 1.9095283767045383e+00 0 1 0
3775 2 7.3789453934718701e+00 4.4863458819206681e-01 2.8680913592804034e+00 0 1 0
2063 1 1.0066565681261784e+01 3.2007078786936756e+00 3.0738762631674703e+00 0 0 0
1457 1 9.5274801175917805e+00 4.0621824256826962e+00 3.5547683274709536e+00 0 0 0
3688 2 3.0407526044496316e+00 4.0012371868196510e+00 4.6191669034036993e+00 0 1 0
513 1 4.8580752281819990e+00 4.4948113144509296e+00 4.6586147538731302e+00 0 0 0
3793 2 7.3372971772972155e+00 1.9940798906260940e-01 3.6809398121890208e-01 0 1 0
2054 1 1.0094881160695229e+01 4.2337412126281802e+00 2.8795781268725074e-01 0 0 0
1402 1 5.9152991921287379e+00 7.7340942522318518e-02 2.4324379531741816e-01 0 1 1
431 1 8.7262375295144678e-01 1.8805005757123239e+00 2.5967319477837290e+00 0 1 1
558 1 1.5951379684856208e+00 2.3259457242192108e+00 1.9488805862110004e+00 0 0 0
2962 1 7.0336032602616627e-01 2.8985675334427445e+00 2.2314926361013883e+00 1 0 0
83 1 1.8727189182884043e+00 3.1575306441900604e+00 2.5769390031061712e+00 0 0 0
166 1 1.7785467074395656e+00 2.1684511302125702e+00 3.1143809888352294e+00 0 0 0
1376 1 2.5214139219736653e+00 2.2986123702403471e+00 2.4759308694347202e+00 0 1 0
3606 2 2.7243590723984648e+00 3.2068382502175989e+00 2.1634061955986414e+00 0 0 0
2941 1 3.5077911242864648e+00 3.1022395988662002e+00 2.3809774950290690e+00 1 0 0
3608 2 3.4448099417627427e+00 2.4255420148272231e+00 2.8821735004431499e+00 0 0 0
3128 1 2.7672303977731501e+00 3.1884587574767260e+00 3.0957138309715471e+00 1 0 0
555 1 3.5195556863068651e+00 2.0630122620852371e+00 2.0583269476523371e+00 0 0 0
505 1 4.8345656845936666e+00 2.4098297472002117e+00 1.8090964136777277e+00 0 0 0
663 1 4.3426294099916856e+00 2.2087805317492641e+00 2.7886827755618655e+00 0 0 0
3686 2 4.2584694203664073e+00 2.9020985710842409e+00 2.2069042838197603e+00 0 1 0
1446 1 5.2571451840670749e+00 2.7939340321387012e+00 2.6844449216637924e+00 0 0 0
568 1 5.2526040053261340e+00 1.6637567122933092e+00 2.4712939149176112e+00 0 0 0
3703 2 5.5101990281638153e+00 3.0500491742112281e+00 1.9239288949958737e+00 0 0 0
3533 2 6.4840273775293564e+00 1.5779689352853519e+00 2.5846954280497307e+00 0 1 0
1462 1 5.9781853167573580e+00 2.3108406912433210e+00 1.7927346715708614e+00 0 0 0
1511 1 6.1490004574644361e+00 2.3253655947061800e+00 2.8675120893844217e+00 0 0 0
1561 1 6.8025701785158095e+00 2.9304421081446712e+00 2.0441922948884739e+00 0 0 0
2197 1 7.3169911680913549e+00 1.3341298819032998e+00 2.7279879532135145e+00 0 1 0
566 1 6.9545441226915692e+00 1.9634425677678542e+00 1.8952712969403811e+00 0 0 0
1437 1 7.8072956111227780e+00 2.5885493709095337e+00 1.9862213765064913e+00 0 0 0
2101 1 7.8958322995229198e+00 1.5201108619074468e+00 1.8617064041131917e+00 0 0 1
3946 2 7.9096957232931313e+00 1.9950230373653228e+00 2.5531850333228299e+00 0 1 0
1721 1 7.2020301682624561e+00 2.3864963602761611e+00 2.8422605485988446e+00 0 1 0
2421 1 8.1781270786490605e+00 2.4476203337889681e+00 3.2558985247653567e+00 0 0 0
2689 1 9.4832663014330425e+00 1.5156126983641358e+00 2.8423243360388195e+00 0 0 0
878 1 8.0570366005779679e+00 1.8611905244206181e-01 4.3631746334414903e+00 0 1 0
1191 1 5.5297018305533125e+00 4.5404016556217091e+00 3.7741338015051387e+00 0 0 0
1696 1 7.7845595565145498e+00 4.0699368207992599e+00 4.2996701740103136e+00 0 0 0
2108 1 7.2134380699086593e+00 3.2314509739090411e+00 4.6297069741534775e+00 0 0 0
2037 1 7.1686928436571318e+00 4.5731159391180363e+00 2.5929610844535378e+00 0 0 0
615 1 2.1383342189154861e+00 3.5183382253126028e+00 1.6006503883350367e+00 0 0 1
3028 1 1.2369616296410944e+00 3.8943271945619222e+00 2.0319815558239784e+00 1 0 0
3610 2 1.3703364317359386e+00 4.5217690529149017e+00 2.6928708418651053e+00 0 0 0
636 1 2.0862755989198662e+00 4.5205744966779502e+00 2.1060365696579924e+00 0 0 1
2965 1 9.4709106495375095e-01 3.8227891409418531e+00 3.1315379984055198e+00 1 0 0
1488 1 6.5849207915727410e+00 4.6134702263393415e+00 6.6828447143147909e-02 0 0 0
1039 1 3.8515664600750097e+00 4.2548910925318575e+00 2.1270422506556175e+00 0 0 0
4238 2 2.7637661379200811e+00 4.3563444479292786e+00 1.6230657819677092e+00 1 0 0
3619 2 3.5193613209055523e+00 3.6715938949566591e+00 3.0206436269336372e+00 0 0 1
586 1 2.9062247742346745e+00 4.0147851600654239e+00 2.4504894438866160e+00 0 0 0
1022 1 3.4740826659677713e+00 4.5770951716218642e+00 3.1153342915798357e+00 0 0 -1
1682 1 7.5473624349831079e+00 3.2170753425856167e+00 3.6262410022486091e+00 0 0 0
1440 1 4.3072516530265021e+00 3.4896254059295422e+00 2.9148851100722735e+00 0 0 0
664 1 5.0028947833989177e+00 3.6985172378069047e+00 2.1547903929930898e+00 0 0 0
550 1 4.5942405743642443e+00 4.5663865213587593e+00 2.8870412428585834e+00 0 0 0
655 1 5.5762180571148559e+00 4.5267011462993594e+00 2.4508628966388479e+00 0 0 1
994 1 5.4337846788366715e+00 3.6534929223424979e+00 3.2595912226274786e+00 0 0 0
1428 1 6.8975337000631800e+00 3.9879059621940445e+00 1.7024571642346327e+00 0 0 0
1613 1 9.8693561214410011e+00 4.4649387712034816e+00 4.5250239948465127e+00 0 0 0
534 1 6.5391094144439812e+00 3.2734754913989459e+00 3.1075898173202323e+00 0 0 0
1271 1 6.0987739318348977e+00 3.7211998501205743e+00 2.2645849468958508e+00 0 1 0
1071 1 6.8619133874251537e+00 1.3951074577457458e+00 4.5261251832305538e+00 0 0 -1
3838 2 7.0738386482468423e+00 3.8967560662072449e+00 3.4792506754125223e+00 0 0 0
1137 1 9.5056971561242811e+00 4.8181812734774336e+00 2.7049289880522775e+00 0 0 1
1072 1 8.5034119000973121e+00 3.3151505384671514e+00 2.1382395363372169e+00 0 0 0
1535 1 7.4470196800495421e+00 3.5441685370809535e+00 2.5633320170774510e+00 0 0 0
3964 2 8.1645430721745491e+00 3.3097632099774672e+00 3.0107682996326357e+00 0 1 0
1858 1 8.2789128379986270e+00 1.3097315170380563e+00 4.6158633096513570e+00 0 1 0
1103 1 9.0985761636348723e+00 5.5179547356012271e-01 4.3872931563186972e+00 0 0 0
2076 1 8.4522414301254365e+00 1.4595776502366096e+00 3.0136657852186848e+00 0 0 1
3040 1 3.7681871719873374e+00 4.5560889283473358e+00 2.1424213620912827e-01 1 0 0
570 1 7.6392437100858013e-01 2.8538184220956192e-01 2.8846066799279719e+00 0 0 0
57 1 9.1112755834522763e-01 1.8809593156662108e+00 4.6881663570593917e+00 0 0 0
599 1 3.1964439117211048e+00 3.0193763679889862e-01 4.0063695256087941e+00 0 0 0
3121 1 9.2018332690628633e+00 3.5366642464112936e+00 4.5087667958716864e+00 0 0 0
194 1 1.0822277256091912e+00 8.3327919902609804e-01 4.5029130495559047e+00 0 0 0
3855 2 8.4297785230022793e-01 8.7713311381403269e-01 3.6466629494763425e+00 0 0 0
3192 1 1.0392412747666691e+00 1.7259166577988363e+00 3.6781792603012122e+00 1 0 0
1538 1 9.0583276375313595e+00 6.2716837690416127e-01 3.3680515784805825e+00 0 0 0
1880 1 8.8281512708649750e+00 4.0923493506688855e+00 2.8311928399988151e+00 0 0 0
1584 1 1.8314835820003879e+00 1.1692512374200734e+00 3.8928422799731623e+00 0 0 0
3464 2 2.5680217791915068e+00 8.1537436149641496e-01 3.6459415848817258e+00 0 0 -1
652 1 2.7270331290280820e+00 1.4221681973649234e+00 4.2257991229068903e+00 0 0 0
1622 1 8.5896912007602353e+00 3.5262700797781599e+00 3.7289414369274465e+00 0 0 0
991 1 8.1303952214826456e+00 6.9284228974364170e-01 2.4132189527009493e+00 0 0 0
4264 2 3.8404319299255159e+00 7.0949534062909347e-01 3.3787539913570734e+00 1 0 1
1054 1 4.3345795048499021e+00 4.1958024923600834e-01 4.0859347249904454e+00 0 0 0
481 1 3.7426016366343089e+00 1.2402497094518901e+00 4.0733864940036701e+00 0 0 0
235 1 5.1463439998470051e+00 1.0471249976081853e+00 4.1600613632679497e+00 0 0 0
887 1 2.2362217338399786e+00 1.7910362959279097e-01 4.2386063745546698e+00 0 1 0
3856 2 6.2426328753134159e+00 2.9371603941107627e-01 3.4913846243153936e+00 0 0 0
2360 1 6.1427274126505838e+00 6.7806989102719950e-01 4.3702005291139452e+00 0 1 0
2064 1 1.3429384260963251e+00 2.8383206680834476e+00 1.4241237372844567e-01 1 0 1
3587 2 8.0065322622611159e+00 4.2482506649922547e+00 2.3648684813590228e+00 0 0 0
1950 1 7.9497301002836380e+00 7.1595293169443530e-01 3.5061406004928690e+00 0 0 0
4029 2 7.5683663899579221e+00 9.4400109646551233e-01 4.2855769165372974e+00 0 1 0
580 1 7.0206579633400521e+00 5.1604458664393305e-01 3.8119420418272472e+00 0 0 0
3167 1 2.4330025987385656e-01 1.1628804940093438e+00 3.1061866888181546e+00 1 0 1
4129 2 9.9240904676883641e+00 4.0354086063358183e+00 2.7670241668656512e+00 1 0 1
1425 1 8.8419437225797672e+00 2.4950844793886482e+00 4.0365885070976129e+00 0 1 0
17 1 7.9381594509888409e-01 3.2205026952270005e-01 1.8097082261130695e+00 0 0 0
1242 1 4.9867669045212271e+00 1.4443163251647566e+00 3.2426209031283665e-01 0 1 0
906 1 8.7664307146080844e+00 2.2669075982883653e+00 2.3686545617899086e+00 0 1 0
548 1 6.0507556719181013e+00 2.8896846944120833e+00 4.7574970593211203e+00 0 0 0
3772 2 2.2831137285407070e+00 3.7135238367888052e-01 4.3503559992638446e-01 0 1 1
3288 1 1.4200720714354381e-01 3.1231788437494151e-01 3.7610591193011440e+00 1 1 0
3080 1 8.9534165650712561e-01 2.7867416306608153e+00 3.3293957770764941e+00 1 0 0
3480 2 1.1340277561664891e+00 2.5694101715247033e+00 4.1366312706185848e+00 0 0 0
700 1 1.1550005246380293e+00 3.3585329938306470e+00 4.3766858894900462e+00 0 0 0
288 1 1.9168581700096796e+00 3.1141600994613960e+00 3.6360725757109793e+00 0 1 0
4208 2 2.0234722319040257e+00 3.0691546595507622e+00 4.4760492809047285e+00 1 0 0
543 1 1.9262607332367585e+00 2.2006994429683200e+00 4.1373594483172633e+00 0 0 0
1165 1 2.8108091540428806e+00 2.2433778120764258e+00 3.5083879901383832e+00 0 0 0
802 1 2.8181122731524910e+00 3.0413208102092706e+00 4.2479728256881994e+00 0 1 0
572 1 3.7015025498000873e+00 2.8784685949665643e+00 3.5211947550885672e+00 0 0 0
1167 1 3.5808924499735086e+00 2.3369548242165101e+00 4.3420401413788126e+00 0 0 0
1689 1 9.8098616366598481e+00 2.7743437391383794e+00 4.5070153506350481e+00 0 0 0
3719 2 3.8178340221327596e+00 3.2311585504840106e+00 4.3301093339643533e+00 0 0 -1
4119 2 4.0425115091967880e+00 2.0474663749083430e+00 3.6600468359993723e+00 0 0 0
1007 1 4.6786531216685212e+00 1.9958792989464609e+00 4.3836119365001158e+00 0 0 0
2164 1 4.6976417124663330e+00 2.7454861363829557e+00 3.6801322834593124e+00 0 0 1
3884 2 5.2834594651266178e+00 2.6606714114676144e+00 4.3713446947489336e+00 0 0 1
1062 1 5.2762121731103884e+00 1.8649138844632918e+00 3.5126763220407766e+00 0 0 0
1194 1 6.3927674814712541e+00 1.4034384278918561e+00 3.4691975246025386e+00 0 1 0
814 1 5.8624693427919787e+00 1.8838245955766406e+00 4.3292058836147964e+00 0 1 0
1081 1 5.8126168746107840e+00 2.7732478753932335e+00 3.7672583537922035e+00 0 0 1
860 1 6.8341496810447637e+00 2.5208148078756647e+00 3.9288307754453440e+00 0 1 1
3460 2 8.9635261314046453e+00 2.1227289339060569e+00 3.2710847865439852e+00 -1 0 0
2250 1 9.1498299765510929e+00 1.5153916084847769e+00 3.9804329030847994e+00 0 1 0
1029 1 6.6745926659128987e+00 6.9705036106910712e-01 7.6708275211160373e-02 0 0 0
1573 1 7.4651125644999654e+00 1.6279037024711580e+00 3.7199898230122219e+00 0 0 0
537 1 7.8593127046754825e+00 2.3148853323487826e+00 4.4063036129449582e+00 0 0 0
508 1 6.3611541913088701e+00 4.3062279754338784e+00 3.1936617547589554e+00 0 0 0
3590 2 6.3969375425870343e+00 4.6729381761142008e+00 4.2034539969639404e+00 0 0 -1
986 1 1.4931933700972762e+00 4.4616135696557375e+00 4.6612228910158624e+00 0 0 0
124 1 5.3969360625030554e+00 3.5295953886266727e+00 4.3356423780560949e+00 0 0 0
177 1 1.9952331321454186e+00 4.0233754767741923e+00 3.0704351798397589e+00 0 0 0
1505 1 4.4999168987444893e+00 3.7658346595409027e+00 3.9736183161806009e+00 0 0 0
232 1 2.2361534588461072e+00 3.8844884699084532e+00 4.1801291377025871e+00 0 0 0
1117 1 4.6051435684360928e+00 3.8573211574470290e+00 2.8144338390013851e-01 0 0 1
4148 2 1.3802745662344602e+00 4.0868848174746830e+00 3.8639416868799898e+00 1 0 0
50 1 4.9272305147459861e+00 4.6509788796687745e+00 1.7042975335547159e+00 0 0 0
1519 1 9.3855202016564370e+00 6.0758354679291227e-01 2.2711061023298571e+00 0 0 0
3127 1 3.4019078346022087e+00 3.8188671447832392e+00 3.8380771209667328e+00 1 0 0
4263 2 6.4470278904267335e+00 4.6240666838661237e+00 2.0738853092359184e+00 1 0 0
2098 1 6.7842914297259034e+00 3.5385438368100828e+00 2.8031937207276791e-01 0 0 1
4042 2 3.5501761530262343e+00 7.0135989028145285e-01 4.7445652305377903e+00 0 1 0
3492 2 1.5574488221628966e+00 1.4609972109560659e-01 2.5121940599953541e+00 0 0 0
1001 1 7.5292183917541591e+00 2.7835457293241492e+00 1.0124865262654986e-01 0 0 0
559 1 2.8402471800687481e+00 4.6591241289297081e+00 3.9570852715645013e+00 0 0 0
1526 1 4.5638912891072616e+00 2.9665977709634395e+00 4.7662975190439996e+00 0 0 0
386 1 5.4135419874716106e+00 2.0074308719011631e-02 3.9327224190091350e+00 0 1 0
1946 1 1.0346320069814292e+01 4.3809556982733735e+00 2.1444044460432439e+00 0 0 0
574 1 3.9121204447274573e+00 3.9304786831217742e+00 4.7741632372816651e+00 0 0 0
2468 1 1.0036458169178267e+01 2.3727668282439183e+00 1.1882319498813960e+00 0 0 0
733 1 5.0784134270906129e+00 2.9741153117761647e+00 9.9969558725248958e-02 0 1 0
3631 2 4.3582747865058185e+00 4.7914126522907523e+00 1.0209050123102434e+00 0 0 1
3341 1 3.6591333133557402e-01 7.8882379904123695e-02 4.7991959711267480e+00 1 1 0
1865 1 6.0698832991417468e+00 1.6711937511783101e-01 8.9022293295778940e+00 0 1 0
581 1 1.8629466465425979e+00 3.7534146938101327e+00 9.5585232480187869e+00 0 0 -1
617 1 6.3219968225032526e+00 4.4819387351784910e+00 8.0530663389223616e+00 0 0 0
1171 1 9.2871771385685999e+00 3.0915915686421194e+00 5.4759981929280386e+00 0 0 0
1069 1 3.3667680382093690e+00 1.5845178342576007e+00 5.1109878726927942e+00 0 0 0
2986 1 3.3323988053865061e-01 1.0649541070746193e+00 5.1754338269737188e+00 1 0 0
3545 2 1.1997926831733121e+00 1.3725281369730304e+00 5.3540653275623260e+00 0 1 0
199 1 8.3497156034448661e-01 1.0998448412354416e+00 6.1143560450188268e+00 0 0 0
4220 2 8.8925763858140225e+00 1.1871796149408420e+00 7.4827475340997065e+00 0 0 -1
323 1 2.9051328053598233e+00 3.0848044132440764e+00 9.5015466215563791e+00 0 1 -1
1628 1 8.7735487399243297e+00 4.2259537596444048e+00 8.0670864264667728e+00 0 0 0
706 1 1.9819869146277334e+00 9.8424940371122582e-01 5.9203559015428411e+00 0 0 0
1178 1 6.3560743500457040e+00 4.7840310682428067e+00 5.7082874748137735e+00 0 0 0
3513 2 2.5589549058403471e+00 1.4892294720980626e+00 5.4769160133184052e+00 0 0 0
842 1 2.6373673732914824e+00 7.6406693353631217e-01 5.0648363293938132e+00 0 1 0
913 1 3.0079934175854937e+00 1.2513437189977279e+00 6.2247298761709873e+00 0 1 0
517 1 5.4240380884554913e+00 4.5761604435731522e+00 9.2097981552611738e+00 0 0 0
1904 1 8.6841633550925934e+00 1.4988026821741929e+00 5.9017053488815412e+00 0 1 0
3611 2 4.4312453366181064e+00 5.0730945941377803e-01 5.4824226921258257e+00 0 0 1
3752 2 3.9832369748897887e+00 1.4719722017725292e+00 5.7107824145083672e+00 0 0 0
526 1 3.6114972967573209e+00 6.9219378047276792e-01 5.6524825771858369e+00 0 0 -1
1080 1 4.3274996743332741e+00 8.1333047880133236e-01 6.4092633569867852e+00 0 0 0
1514 1 6.8182466086602345e+00 2.9339497014599978e+00 8.9042000512708643e+00 0 0 -1
1128 1 4.9352867811002925e+00 1.2343365759429017e+00 5.7179902970153407e+00 0 0 1
1557 1 9.7789574851999888e+00 4.1912386844515463e+00 8.2164417915298351e+00 0 0 0
2053 1 9.3584064062864467e+00 2.0431157229151311e+00 6.4839254717314763e+00 0 0 0
1683 1 5.9805071273683215e+00 6.4158394014571374e-01 6.2883071990758221e+00 0 0 0
1199 1 5.8833036981661309e+00 1.2924394216172583e+00 5.2013555664490845e+00 0 1 0
3749 2 8.5089738469652225e+00 3.3861557736315038e+00 8.3196484350668314e+00 0 0 0
4122 2 6.5512312152099570e+00 6.7504577404414157e-01 5.1991408728341151e+00 0 0 0
1349 1 7.0395568358645395e+00 3.1407612822953107e-01 5.8478280331208534e+00 0 1 0
889 1 7.5317670291072583e+00 8.7671527448597630e-01 5.1753790791739220e+00 0 1 0
1021 1 8.5033889448089894e+00 2.9434919332275662e+00 9.2848072138095468e+00 0 0 0
1654 1 7.8261263001765755e+00 1.0323602161352481e+00 6.2331868854580055e+00 0 0 0
975 1 9.4010485002931645e+00 1.2254688135573446e+00 5.1470992369600328e+00 0 0 0
971 1 1.0057595842347213e+01 3.1358337163310104e+00 9.6305363329770728e+00 0 0 -1
625 1 1.4612160059621226e+00 1.7976716370185464e+00 9.5904953986537009e+00 0 0 0
2385 1 7.8518109554588174e+00 2.4942242043538909e-01 8.1227704666892873e+00 0 1 0
2161 1 1.0075404442659138e+01 2.6728028859617550e+00 7.0802687832207036e+00 0 0 0
1566 1 7.0471923477178837e+00 3.6236174826515808e+00 8.1098813589842109e+00 0 0 0
110 1 8.1886950983179463e-01 2.1885744821747437e+00 5.6894982097390985e+00 0 0 -1
426 1 1.2693800215203486e+00 1.3621884897408593e-01 7.6512830720112719e+00 0 1 0
695 1 1.9573683856259991e+00 2.0364776351418916e+00 5.8428421053547543e+00 0 0 0
602 1 1.5985212458172218e+00 2.5904916023410816e+00 5.0550034436482036e+00 0 0 0
2586 1 1.4552842709857829e+00 2.8858951013899028e+00 6.1622840611553800e+00 1 0 0
4302 2 2.4088718725943599e+00 2.7884753306341854e+00 5.7023866923452875e+00 1 1 0
1180 1 3.1262778853382125e+00 2.2763794844117800e+00 5.8900527995453302e+00 0 0 0
1482 1 3.4857237647936392e+00 3.1240230162163747e+00 5.1583996948630411e+00 0 0 0
370 1 2.9892426402880385e+00 3.5677027017073748e-01 8.2585083155022154e+00 0 1 0
675 1 3.0205506677357388e+00 3.3334483553979397e+00 6.1445406822807556e+00 0 0 0
676 1 2.4457146180322207e+00 3.4630033138939513e+00 5.1617574191101641e+00 0 0 0
1114 1 4.1774394210276107e+00 2.2601466469215175e+00 5.4009107566490275e+00 0 0 0
1187 1 4.9879767202221137e+00 2.2534755764246257e+00 6.1468254420866444e+00 0 0 0
659 1 3.9979026989262234e+00 2.8916193905681125e+00 6.1406254819565333e+00 0 0 0
3713 2 4.7118176435924983e+00 2.9559943578120471e+00 5.5810891945133170e+00 0 0 0
698 1 3.9436561081500958e+00 1.8994382204069067e+00 6.4368871217514911e+00 0 0 0
1177 1 5.2813444380508372e+00 2.3440169121773398e+00 5.1626976001161511e+00 0 0 0
1853 1 5.9165945383212435e+00 1.6771204896735616e+00 6.2498360924766718e+00 0 1 1
3123 1 5.9055996418049839e+00 2.7136419366501952e+00 5.9619816701815331e+00 1 0 0
3577 2 6.6756126456544909e+00 2.2413466181682349e+00 6.1932709050684611e+00 0 0 -1
1676 1 6.5344608440162135e+00 2.1174975430083784e+00 5.2771042078771826e+00 0 0 0
1647 1 6.8864533974549795e+00 1.3564384914037824e+00 5.8303973065883286e+00 0 0 0
3707 2 7.1503238077966662e+00 1.1191069338762356e+00 9.1551424234857954e+00 0 0 -1
592 1 1.0394955831987345e+00 6.2041199276871595e-01 8.6901615282700124e+00 0 0 -1
1153 1 7.5637133824857115e+00 2.2113581485400404e+00 6.3763166953276205e+00 0 0 0
2057 1 7.2249056764169133e+00 1.9819819199937128e-01 7.0946085334193141e+00 0 0 0
998 1 7.9860383634809144e+00 4.4340279375459479e+00 6.5998023159931893e+00 0 0 0
2106 1 7.7467565494578485e+00 4.6405122609959468e+00 9.5194650563373706e+00 0 0 0
2610 1 9.8273957369205664e+00 2.5079322162151079e+00 8.2848013105247578e+00 0 0 0
1688 1 9.2044103408523146e+00 4.2254647342943255e+00 5.3192956348037521e+00 0 0 0
1079 1 1.4280389474357005e+00 3.6137428822603983e+00 5.4061794474204321e+00 0 0 0
223 1 1.3007082201189055e+00 4.5972018028105639e+00 5.7557093041655571e+00 0 0 0
1133 1 2.2053455794719596e+00 4.0856139282833190e+00 6.0056284617155882e+00 0 0 0
231 1 6.3082674133951766e+00 4.7568167172117244e+00 6.8995233793678210e+00 0 0 0
1115 1 8.5727861165358412e+00 3.7402524282861851e+00 5.9198431831419365e+00 0 0 0
601 1 3.3389430498521633e+00 4.2141107008241860e+00 5.6867267566760962e+00 0 0 0
1093 1 4.4562865017755460e+00 3.7721918494351168e+00 5.7307302108418394e+00 0 0 0
1099 1 3.8800706308840764e+00 4.7071682535340020e+00 6.5267767591701560e+00 0 0 0
2088 1 5.3616960687377340e+00 3.5422598749881775e+00 5.3948882766633979e+00 0 0 0
127 1 5.1509720073855787e+00 3.2736150823959576e+00 6.4128727001445549e+00 0 0 0
784 1 8.0929961794868639e+00 7.4935966911239438e-01 7.2204301366134533e+00 0 1 0
1085 1 6.5052199967722295e+00 3.5255079944653116e+00 5.4836064811968681e+00 0 0 0
3016 1 5.9009683239063637e+00 3.9556796785234729e+00 6.2358663660078468e+00 1 0 0
1184 1 7.0138688942458005e+00 4.2437210499039359e+00 6.2246262174490532e+00 0 0 0
1030 1 7.3212954148708489e+00 2.8287044235579319e+00 5.6016836355699118e+00 0 0 0
1504 1 7.6800300365260794e+00 3.8474549826457083e+00 5.4652362685645004e+00 0 0 0