LAMMPS data file via write_data, version 12 Dec 2018, timestep = 240240

4320 atoms
2 atom types

0.0000000000000000e+00 1.9309999999999999e+01 xlo xhi
0.0000000000000000e+00 1.9309999999999999e+01 ylo yhi
0.0000000000000000e+00 9.6549999999999994e+00 zlo zhi
3.5144199999999994e+00 0.0000000000000000e+00 0.0000000000000000e+00 xy xz yz

Masses

1 1
2 1

Atoms # atomic

4263 2 6.5631010174312472e+00 3.8949497073350039e+00 2.4928011043842462e+00 1 0 0
3847 2 8.9367788031236959e+00 4.7548533379887141e+00 3.3809164010866528e+00 0 0 0
1433 1 9.7161596380015283e+00 4.3779826548415963e+00 1.2971531948894870e+00 0 0 0
1218 1 4.2898056865462808e-01 1.2800742975554424e+00 1.1002391882024021e+00 0 1 0
3622 2 1.2288120201014212e+00 1.2657736439815583e+00 7.0402775680706675e-01 0 0 1
1502 1 8.7030658445489699e+00 4.5179424543242064e+00 1.8879623260326674e+00 0 0 0
967 1 6.2027237815994307e-01 2.1035167987690113e+00 5.1966626253904191e-01 0 0 0
3205 1 1.5797544372085326e+00 2.1698713264601257e+00 9.4022955864862434e-01 1 1 0
1979 1 9.6919326376921049e+00 2.3637295673911565e+00 2.5348357313472181e+00 0 0 0
851 1 2.1339042738431688e+00 1.2488016098347177e+00 6.3185532705921632e-01 0 1 0
253 1 2.6842785191182985e+00 6.0096945485520981e-01 1.2912705080099180e+00 0 1 0
1190 1 3.1313536436188842e+00 1.5594218536125708e+00 1.2228517498724523e+00 0 0 1
3918 2 2.9490282096800269e+00 1.6655795226544448e+00 2.5285433283809955e-01 0 1 0
30 1 6.4742741183495651e+00 3.6150390054935446e+00 4.0781911945596105e+00 0 0 0
1127 1 3.1908100069603647e+00 7.5955104337710544e-01 2.7920034210708350e-01 0 0 1
1554 1 4.0344783946751841e+00 1.0603670868641948e+00 8.1454800428740726e-01 0 0 1
4116 2 3.6089270458272309e+00 7.3574336972341525e-01 1.5981544927281046e+00 1 0 -1
95 1 4.5713154455256584e+00 4.6630300952350473e-01 1.5625736286933865e+00 0 0 0
2513 1 9.4066532292064799e+00 4.8555803240639067e-01 1.1435368460551287e+00 0 0 0
2159 1 1.0118829383649869e+01 3.2907514620594860e+00 4.0809591221850265e+00 0 0 0
870 1 5.0029074940932334e+00 1.4371532984987947e+00 1.3896893795801992e+00 0 1 1
1798 1 5.6700540540763722e+00 7.4914802697517313e-01 1.0769530308742719e+00 0 1 0
1050 1 5.9338746610872972e+00 2.7695515623666509e+00 6.0193835191331077e-02 0 0 0
1711 1 9.1222893487950092e+00 2.6522421830230014e+00 5.7692783820186877e-01 0 1 0
1615 1 6.8179575268117647e+00 1.0755331071291272e+00 1.1186573367741628e+00 0 0 1
1678 1 8.8946468501492806e+00 3.0001699542739213e+00 3.0590388716630779e+00 0 0 1
987 1 5.8708364724733002e+00 1.4990246023156535e+00 2.7990230525481263e-01 0 0 0
1001 1 7.4109001322552475e+00 2.6895482944030640e+00 1.0812311589628044e-01 0 0 0
1359 1 7.3845336171105318e+00 9.9928211592453975e-01 2.8609148890684227e-01 0 1 1
3468 2 7.8869776640372367e+00 1.2208452611724163e+00 1.0409580487027539e+00 -1 0 1
767 1 7.5148817462683013e+00 1.9296365855124500e-01 1.1944646625309692e+00 0 1 0
1470 1 9.0962468927896492e+00 2.6899813539816138e+00 1.6441156982683900e+00 0 0 0
2468 1 1.0008503993955591e+01 2.2751283106784856e+00 1.2275245584907255e+00 0 0 0
3137 1 5.2406521151815688e-01 3.1119283430552058e-01 8.3729731625060189e-01 1 0 1
115 1 1.6296972384510326e+00 5.9976093403335351e-01 1.2361080840315026e+00 0 0 0
1098 1 8.3116790917786130e+00 1.8769908334038894e+00 2.5157355349531957e-01 0 0 1
254 1 1.1507149848250382e+00 3.1654114359464147e+00 1.2784174797914902e+00 0 1 0
4228 2 2.0783369341411486e+00 3.4988582208070038e-02 1.7436833233312803e+00 1 0 0
1160 1 8.4021441638522667e+00 7.5597332595434008e-01 1.4699702915165453e+00 0 0 0
3599 2 1.6269130438826576e+00 3.7837136074483686e+00 8.6182474928300234e-01 0 0 0
622 1 2.1488684141528225e+00 3.0568113494833438e+00 7.4661269812299524e-01 0 0 1
3750 2 2.4336607138529258e+00 2.0917530350984048e+00 9.0412051780677805e-01 0 0 1
34 1 3.2131415640515248e+00 2.4883729293084027e+00 5.7476708993454317e-01 0 0 0
1065 1 2.7074878184919413e+00 2.6030782310270393e+00 1.5125404612149267e+00 0 0 0
968 1 4.3164010700928062e+00 2.3482104539335769e+00 6.6451900431529265e-01 0 0 1
3708 2 4.0683148690495994e+00 1.7664504428623209e+00 1.2967035655099217e+00 0 0 0
1166 1 3.9291045785819430e+00 3.1050988708855791e+00 1.3905847749159048e+00 0 0 1
3768 2 4.2552938169510792e+00 3.1585144976245090e+00 4.8312335712747539e-01 0 1 0
3676 2 8.6247168393158358e+00 1.2932988623213175e+00 2.2197556231107711e+00 0 1 1
3757 2 5.8881143977481827e+00 1.5975444770276694e+00 1.2326766554959343e+00 0 0 1
1764 1 5.3626772164670111e+00 2.3241800925244172e+00 7.6203418902212172e-01 0 1 0
1617 1 6.4721822824547175e+00 2.1638345976710527e+00 9.2269013337915784e-01 0 0 1
2174 1 4.7332716839669207e+00 2.6313920108918099e-01 5.7629742278737639e-01 0 1 0
1499 1 7.4325960612683808e+00 1.9554884825353556e+00 9.1674510689151245e-01 0 0 1
1544 1 9.2730662528649415e+00 1.6212819029651726e+00 7.0494599800881663e-01 0 0 0
691 1 4.1471445951811452e+00 4.7591177354641063e+00 3.7691801671257705e+00 0 0 0
1965 1 9.3525295336558472e+00 1.5545348577305553e+00 1.7948834810809846e+00 0 0 0
1145 1 8.8305237003110779e+00 4.3958007723802259e+00 4.2845658988015378e+00 0 0 0
1137 1 9.4082483634113725e+00 4.8208657022808650e+00 2.6906780610674979e+00 0 0 1
4063 2 9.6052018381839570e+00 1.8156808122036514e-01 2.8562349421246349e+00 0 1 1
3085 1 8.3015649414556059e-01 3.9222068321443757e+00 4.6195751121139506e-01 1 0 1
1488 1 6.5125652434931069e+00 4.5208714034848487e+00 5.2111892093613270e-02 0 0 0
171 1 1.6445805236470128e+00 4.5515354563584705e+00 1.2697635441874067e+00 0 0 1
1513 1 7.2295362680296282e+00 4.2445016725482851e+00 7.6591048469372591e-01 0 0 0
952 1 8.4798519253637092e+00 1.8620241215301936e+00 1.3243327490548895e+00 0 0 0
656 1 3.4779292175999190e+00 3.6302520218731691e+00 5.5986531999546030e-01 0 0 1
242 1 3.6159752775752603e+00 4.8528484374209091e-02 1.1009125893748082e+00 0 0 1
717 1 2.4979741138126368e+00 4.1209980183938990e+00 7.8392231320601269e-01 0 0 1
2340 1 9.2209194118997644e+00 2.0852338540379239e-01 5.5283756569156080e-02 0 1 1
668 1 3.0515042813219129e+00 3.7057872406347525e+00 1.5276847982772950e+00 0 0 0
2201 1 8.7242712695045164e+00 3.5537323192336645e+00 1.1618200702790560e+00 0 1 0
1472 1 9.3216763704036278e+00 3.6402959990591994e+00 2.0243659890459518e+00 0 0 0
1019 1 4.9706760499052720e+00 3.3088019542655838e+00 9.8243481292496959e-01 0 0 0
1198 1 4.2765668637380720e+00 4.0531464474883991e+00 1.2132860840796793e+00 0 1 0
3627 2 4.9815758924943925e+00 4.3343556081122570e+00 7.9687027135938659e-01 0 0 1
1870 1 8.4438225139470156e+00 8.3642697046459957e-01 4.8197012950194068e-01 0 1 1
3503 2 8.1954455021697914e+00 1.8256136709207360e+00 3.8718139972825520e+00 -1 0 2
567 1 6.0088760820241713e+00 3.1041243525331015e+00 1.1418047162405547e+00 0 0 0
669 1 5.5902706732165282e+00 4.1115105027763308e+00 1.3654169138360173e+00 0 0 1
3865 2 6.3139190872066990e+00 4.1499985883694572e+00 7.8728691743962442e-01 0 0 0
1051 1 5.5495308233956431e+00 3.8425676296768843e+00 2.5302722941253902e-01 0 0 0
3793 2 7.2137738930350919e+00 1.5450701333570083e-01 3.9386437750977332e-01 0 1 0
3588 2 2.6079087254755104e+00 3.6885956300369176e+00 3.6107737820643480e+00 0 0 0
3771 2 9.3735260590755960e+00 3.0359247888269008e+00 3.6975826553831923e+00 0 1 -1
503 1 8.1501726512946782e+00 2.7465324809108722e+00 9.3370299175804627e-01 0 0 0
1506 1 7.0826823648917694e+00 3.0726740864897444e+00 1.1384304218790982e+00 0 0 0
1564 1 7.8440786467200514e+00 3.6080951125438525e+00 3.4259536733408419e-01 0 0 1
1572 1 7.8150063676997235e+00 3.8930115116147457e+00 1.5633151338269049e+00 0 0 1
1671 1 9.7074998815631481e+00 3.3428701351982948e+00 1.0024812056051098e+00 0 0 1
955 1 7.0238493041562613e+00 4.7390535795284912e+00 3.7085648009277814e+00 0 0 0
581 1 1.8305426772934825e+00 3.7926785206661009e+00 1.4240474105661483e-02 0 0 0
94 1 1.9360207851189755e+00 3.2986695893559509e-01 3.2174992390860706e+00 0 0 0
2145 1 9.7578144938323188e+00 2.2575331377212899e+00 3.5436019389331839e+00 0 0 0
2960 1 4.9885522507226132e-01 2.2787500020983829e+00 1.6900882191395883e+00 1 0 0
520 1 1.2245183008118126e+00 1.5043192166128345e+00 1.7406501005362609e+00 0 0 0
878 1 7.9145182150220617e+00 2.7657919024082328e-01 4.5956148216777359e+00 0 1 0
715 1 1.1562182070293325e+00 1.0855891796485810e+00 2.8667663963974577e+00 0 0 0
2108 1 7.0500280004059643e+00 3.1890999508932576e+00 4.7830304482610195e+00 0 0 0
1000 1 2.2129143708911130e+00 1.6263737815365242e+00 1.5840219461801019e+00 0 0 0
4214 2 1.7327429177936320e+00 1.6340747631060673e+00 2.3938392414769170e+00 1 0 0
817 1 2.0224045840618561e+00 7.6479274527601815e-01 2.2220411409168106e+00 0 1 0
159 1 2.9506977898881814e+00 1.0322621582073159e+00 2.1782277325342498e+00 0 0 0
992 1 2.3765846348893902e+00 1.3305174015094066e+00 3.0409275182038025e+00 0 0 0
966 1 2.9131891579329250e+00 3.4072863842889356e-01 2.9754244238593488e+00 0 0 0
1134 1 3.4439161315509224e+00 1.6355028304808967e+00 2.8994388211787361e+00 0 0 1
1040 1 4.1176074426576372e+00 1.4120556012681358e+00 2.0299921670232202e+00 0 0 0
1358 1 3.8056382660867896e+00 4.9718031691256026e-01 2.4605217061087541e+00 0 1 1
1621 1 7.7645015710995908e+00 4.2349404902013044e+00 3.2393029173211394e+00 0 0 0
3878 2 4.7065162681904669e+00 7.6900803114983052e-01 2.3417129193054631e+00 0 0 1
631 1 4.4217239740412992e+00 1.2442353251528167e+00 3.0816545854329020e+00 0 0 0
3756 2 6.2875518385160989e+00 6.3486349300404565e-01 1.7090086061681868e+00 0 0 1
1357 1 5.5518350181508929e+00 3.2399806962509292e-01 2.1395973418916956e+00 0 1 1
575 1 5.5007798147721418e+00 1.0195153843927660e+00 2.9467934724824403e+00 0 0 0
722 1 5.8948234786519471e+00 1.2837623075135196e+00 2.0429606052142995e+00 0 1 0
1147 1 6.3810490933372934e+00 5.0887306744402705e-01 2.7310198309414999e+00 0 0 1
1351 1 7.0880463176684767e+00 6.8751743260111098e-01 2.0438813767403397e+00 0 1 0
3775 2 7.2667135352345786e+00 3.3422555266335247e-01 2.9887474934761600e+00 0 1 0
137 1 1.4157650755101325e+00 6.0441542719545815e-01 1.6825665855310143e-01 0 0 1
1457 1 9.4102297590868815e+00 3.9132073516608625e+00 3.6331086238347834e+00 0 0 0
1491 1 3.8947687088102625e+00 8.0312830681832370e-02 4.7983813869960672e+00 0 0 -1
513 1 4.5864145316396749e+00 4.4920625564120309e+00 4.7512134946875078e+00 0 0 0
1029 1 6.4147701623368754e+00 6.2450356066812363e-01 1.9722863253932876e-01 0 0 0
2054 1 1.0031984336063196e+01 4.1979045219729914e+00 1.1243415389599000e-01 0 0 0
559 1 2.5973456002786541e+00 4.7667719300780442e+00 4.0160534983087830e+00 0 0 0
431 1 8.2357977571501706e-01 2.0653989620458875e+00 2.6405901864097685e+00 0 1 1
558 1 1.7407778728486543e+00 2.5246979685544315e+00 2.0082867312525052e+00 0 0 0
1526 1 4.5262347972556052e+00 2.9627812436459191e+00 4.7412444827064872e+00 0 0 0
83 1 1.7796280270105767e+00 3.2709452254492968e+00 2.6710944305199305e+00 0 0 0
166 1 1.7899914951576328e+00 2.3017885282989483e+00 3.0837014730640679e+00 0 0 0
1376 1 2.6395733733775981e+00 2.1256934034092265e+00 2.4660125130997161e+00 0 1 0
3606 2 2.4780456892338734e+00 3.0941425821091011e+00 2.1922753366707894e+00 0 0 0
2941 1 3.4977317703832003e+00 3.2253090120086085e+00 2.3845408656809122e+00 1 0 0
3608 2 3.3194185053907228e+00 2.5110843774445741e+00 2.7573360075277593e+00 0 0 0
3128 1 2.7370874236592599e+00 3.0893998774726725e+00 3.0422240548847657e+00 1 0 0
555 1 3.5391401582924780e+00 2.2467697001473499e+00 1.9346261141216921e+00 0 0 0
505 1 4.6431732743003327e+00 2.4250588148972758e+00 1.6711790916813922e+00 0 0 0
663 1 4.2484305942451535e+00 2.3040007547965136e+00 2.8168078406605144e+00 0 0 0
3686 2 4.3136740905270452e+00 2.9931235076344844e+00 2.2324639687790873e+00 0 1 0
1446 1 5.1005087581065442e+00 2.7814126971798161e+00 2.5586105503756662e+00 0 0 0
568 1 5.0147159554039042e+00 1.7606134162185834e+00 2.3972491253489858e+00 0 0 0
3703 2 5.3254444475103924e+00 3.0074632105652217e+00 1.6916886358526853e+00 0 0 0
3533 2 6.3965489203803916e+00 1.4292163438669110e+00 2.7112815805574719e+00 0 1 0
1462 1 5.7115176807697337e+00 2.2451020429810997e+00 1.7551942895918053e+00 0 0 0
1511 1 5.9898061645751710e+00 2.2040968197301591e+00 2.7223485367244065e+00 0 0 0
1561 1 6.5989595481058991e+00 2.8547008337216093e+00 2.0617980125100255e+00 0 0 0
2197 1 7.2362930273955444e+00 1.2803925904979427e+00 2.9196837759778380e+00 0 1 0
566 1 6.8180072657534723e+00 1.7360283334907838e+00 1.9797784065180277e+00 0 0 0
1437 1 7.6783526120455496e+00 2.4993283734805445e+00 1.8233506070004519e+00 0 0 0
2101 1 7.7772693574090876e+00 1.4425559652705506e+00 1.9873319155788502e+00 0 0 1
3946 2 7.7226629507121523e+00 1.9774269090508827e+00 2.5809619181561532e+00 0 1 0
1721 1 6.9775857648533943e+00 2.2801174573992888e+00 3.0003292541156772e+00 0 1 0
2421 1 7.9724642960513430e+00 2.5454719325868163e+00 3.2032190923457278e+00 0 0 0
2689 1 9.3893821430120745e+00 1.4088328122354694e+00 2.8626521894489949e+00 0 0 0
4042 2 3.3342425951178418e+00 7.2164586173013523e-01 4.7857038763929385e+00 0 1 0
1191 1 5.2247764344263858e+00 4.4461657227436566e+00 3.8555461167006770e+00 0 0 0
1696 1 7.7163223536577465e+00 4.0552916777966939e+00 4.3965629940675361e+00 0 0 0
3688 2 2.8858595747767550e+00 4.2112762385350058e+00 4.7698910906472216e+00 0 1 0
2037 1 7.0494992799411813e+00 4.6490518354174259e+00 2.5895878684547062e+00 0 0 0
615 1 2.0338016686535898e+00 3.6203743043125187e+00 1.6308877300650901e+00 0 0 1
3028 1 1.2306995523291617e+00 3.9954548386846587e+00 2.0714517420059733e+00 1 0 0
3610 2 1.3374198464142626e+00 4.6636765978844466e+00 2.7900565504476762e+00 0 0 0
636 1 2.0284619207505417e+00 4.7402854265571897e+00 2.2625051570951000e+00 0 0 1
2965 1 9.0333768896053102e-01 3.9878334340935351e+00 3.1144507283888525e+00 1 0 0
1607 1 9.2360007783003653e+00 4.7902031700401588e+00 3.7079011044517451e-01 0 0 1
1039 1 3.7770817775625121e+00 4.2966270560016948e+00 2.1663752896781392e+00 0 0 0
4238 2 2.6640849144769057e+00 4.4555546933589980e+00 1.6170969429224129e+00 1 0 0
3619 2 3.5111552261214580e+00 3.7593470699237321e+00 3.1814082364512708e+00 0 0 1
586 1 2.6526641312700869e+00 3.9912609854093786e+00 2.4761363595186419e+00 0 0 0
1022 1 3.2887534992491743e+00 4.5765398981910321e+00 3.1395929562452540e+00 0 0 -1
1682 1 7.3764293922061386e+00 3.2970965968364236e+00 3.7141396290906354e+00 0 0 0
1440 1 4.3119046482836243e+00 3.6395791693896906e+00 2.9202494740428713e+00 0 0 0
664 1 4.7753402716851046e+00 3.6607987569278491e+00 1.9840590436631165e+00 0 0 0
550 1 4.9645604271079753e+00 4.4722190426064525e+00 2.7552174031663754e+00 0 0 0
655 1 5.9527155629743991e+00 4.5659168290165049e+00 2.2427243732415798e+00 0 0 1
994 1 5.3664177552302181e+00 3.6364488560259693e+00 3.2319306926298665e+00 0 0 0
1428 1 6.6224351050808066e+00 3.8549202462220484e+00 1.6484953788445862e+00 0 0 0
1613 1 9.8943106651098187e+00 4.1953035132562171e+00 4.5540377268692911e+00 0 0 0
534 1 6.4734353170170316e+00 3.1678617761914101e+00 3.0447006494616935e+00 0 0 0
1271 1 5.7658092104409917e+00 3.5318312953935136e+00 2.2363822582715822e+00 0 1 0
2141 1 8.2549943486903548e+00 4.5655759227556825e+00 8.2248139376134433e-01 0 0 1
3838 2 6.9654758571840043e+00 3.9730882175528608e+00 3.3201301549302520e+00 0 0 0
3127 1 3.3058361463088470e+00 3.9871076615566499e+00 4.0193048235317592e+00 1 0 0
1072 1 8.3553579372510924e+00 3.2457160223377963e+00 2.1513507737596544e+00 0 0 0
1535 1 7.3861006610245514e+00 3.5100447363607374e+00 2.5661782395706596e+00 0 0 0
3964 2 8.1118335984681753e+00 3.4189545962612753e+00 3.0502752457070428e+00 0 1 0
1858 1 8.1121426062662181e+00 1.3277070284490569e+00 4.5808633039385898e+00 0 1 0
1103 1 8.9811203832976965e+00 4.8687876245163630e-01 4.3795209379342070e+00 0 0 0
2076 1 8.3107187802289708e+00 1.4791157302421911e+00 3.0630318842156847e+00 0 0 1
3040 1 3.6114511379692829e+00 4.5438745979988147e+00 8.2639529036395348e-02 1 0 0
570 1 5.4814758630599913e-01 2.5372910419766798e-01 2.8889659082115298e+00 0 0 0
1946 1 1.0225623670891691e+01 4.1757369997137959e+00 2.2107754225439367e+00 0 0 0
599 1 3.2042692470199867e+00 2.5097753558485442e-01 4.0406215333399258e+00 0 0 0
3121 1 9.1314739171220829e+00 3.3597553005242564e+00 4.6798240569859733e+00 0 0 0
194 1 1.0250741795660026e+00 8.9173586501887458e-01 4.5559534241697612e+00 0 0 0
3855 2 8.6317883027585329e-01 1.0134838469084935e+00 3.7257315799638109e+00 0 0 0
3192 1 9.5862791411483239e-01 1.9576011015153290e+00 3.6919522304614527e+00 1 0 0
1538 1 8.7895825325239070e+00 4.7058863364918446e-01 3.2616255830764080e+00 0 0 0
1880 1 8.7018826718318074e+00 4.0477471905071241e+00 2.8169945012956847e+00 0 0 0
1584 1 1.7169499664790924e+00 1.1796924931558463e+00 3.8237019640617991e+00 0 0 0
3464 2 2.5679457830493808e+00 7.7203202313813046e-01 3.6792909452160276e+00 0 0 -1
652 1 2.7597774242009128e+00 1.4206284264042395e+00 4.2352479389900344e+00 0 0 0
1622 1 8.3883595540887725e+00 3.4460084184414388e+00 3.8849519186117076e+00 0 0 0
991 1 8.0200839814733680e+00 5.9910123198642085e-01 2.5213120040568406e+00 0 0 0
4264 2 3.6543358553143519e+00 5.0331552250403466e-01 3.3384697242144714e+00 1 0 1
1054 1 4.2998474228120012e+00 3.6787158427391337e-01 3.9396904573922669e+00 0 0 0
481 1 3.7387407858197941e+00 1.2503290264647136e+00 3.8858430960953241e+00 0 0 0
235 1 5.1854332426861180e+00 1.0657269940148748e+00 3.9477615815203060e+00 0 0 0
887 1 2.0555243263059366e+00 2.5514731919376887e-01 4.3463891708147484e+00 0 1 0
3856 2 5.9479122599983221e+00 4.9185997381271879e-01 3.5019092123571118e+00 0 0 0
2360 1 6.1044899631078078e+00 8.5493119823561337e-01 4.3939355095967407e+00 0 1 0
2064 1 1.2087020499971723e+00 2.9123541820007746e+00 2.0529796943341377e-01 1 0 1
3587 2 7.9565086854970364e+00 4.1848112326481672e+00 2.3546677063312083e+00 0 0 0
1950 1 7.8335347200769272e+00 6.5670731730561627e-01 3.6135799081013280e+00 0 0 0
4029 2 7.3532218662860940e+00 9.3992971063126629e-01 4.4148067806584059e+00 0 1 0
580 1 6.8480621751844977e+00 6.1767657330279724e-01 3.6795973997363798e+00 0 0 0
3492 2 1.3833458051943432e+00 9.6639059547485417e-02 2.5542905144699306e+00 0 0 0
4129 2 9.6618430660909915e+00 4.0059081094490834e+00 2.8488550479196886e+00 1 0 1
1425 1 8.7883797826324077e+00 2.4764301083932447e+00 4.0497279839071334e+00 0 1 0
17 1 8.4766146771980655e-01 4.2354864019588229e-01 1.8947241486956272e+00 0 0 0
1242 1 4.8054807854175481e+00 1.4487428914102713e+00 2.6342001723352410e-01 0 1 0
906 1 8.5084795500945827e+00 2.2098493694060228e+00 2.3154633220185672e+00 0 1 0
140 1 2.7636401479484696e-01 1.3343239067688153e+00 2.1290373153247728e+00 0 0 0
3772 2 2.3008298612752940e+00 3.7239779049120769e-01 5.2731350108288644e-01 0 1 1
3590 2 6.2121315401534654e+00 4.4560855021152905e+00 4.1539450806209750e+00 0 0 -1
3080 1 8.6094850464076411e-01 2.9254039288949949e+00 3.3056749420862142e+00 1 0 0
3480 2 1.0792070143201118e+00 2.5927890786655197e+00 4.1623471831820353e+00 0 0 0
700 1 8.9841988750816970e-01 3.4640389785463697e+00 4.2307321616243456e+00 0 0 0
288 1 1.8192363469633090e+00 3.1658153318477908e+00 3.7008834907560861e+00 0 1 0
4208 2 2.0730823773974074e+00 3.0732856244324251e+00 4.5830572095228526e+00 1 0 0
543 1 1.8794374799757738e+00 2.2510809778414322e+00 4.2131385784727806e+00 0 0 0
1165 1 2.8164389234864049e+00 2.2063521428910091e+00 3.5621074898407818e+00 0 0 0
802 1 2.8150482704461770e+00 3.0484112782132384e+00 4.1500059794927413e+00 0 1 0
572 1 3.6732170575748579e+00 2.9317199382456725e+00 3.4627667862897327e+00 0 0 0
1167 1 3.6008681898504018e+00 2.2406136358771147e+00 4.3568667498485976e+00 0 0 0
474 1 1.1209481342805663e+00 1.0102321447227362e-01 3.7883798013046759e+00 0 1 0
3719 2 3.7204402821235383e+00 3.1416383368275325e+00 4.3603325744969892e+00 0 0 -1
4119 2 3.8801631001401260e+00 2.0341610562652361e+00 3.5214747702627767e+00 0 0 0
1007 1 4.6026084356690546e+00 2.0363848474441908e+00 4.2238360012441651e+00 0 0 0
2164 1 4.6913693629424742e+00 2.8527704912855336e+00 3.5995402042111366e+00 0 0 1
3884 2 5.2676229931089829e+00 2.6156111956631745e+00 4.3844418868355355e+00 0 0 1
1062 1 5.2705967213536189e+00 1.9983942579954899e+00 3.4503725007238026e+00 0 0 0
1194 1 6.3015803124873564e+00 1.4847852624902720e+00 3.5526711651680931e+00 0 1 0
814 1 5.7686237818583503e+00 1.8697803666720290e+00 4.4051359584102849e+00 0 1 0
1081 1 5.7836118029622572e+00 2.8287138716486475e+00 3.6994725420950476e+00 0 0 1
860 1 6.7058303907450787e+00 2.4555876138658923e+00 4.1014396712372800e+00 0 1 1
3460 2 8.9158183993685451e+00 2.0254990359704768e+00 3.2634038812296162e+00 -1 0 0
2250 1 9.0489942150102660e+00 1.4986271501719768e+00 4.0169250521171707e+00 0 1 0
2098 1 6.6569293933673617e+00 3.4868226241679414e+00 2.5070826832913207e-01 0 0 1
1573 1 7.3028243375305006e+00 1.6250006667959542e+00 3.8552788642796139e+00 0 0 0
537 1 7.8089620791560721e+00 2.4574265584576405e+00 4.3435944959802626e+00 0 0 0
508 1 6.1764782786077568e+00 4.3147099518409711e+00 3.2002819867662513e+00 0 0 0
2962 1 8.2628320163758184e-01 3.0497461492354923e+00 2.2806490483551292e+00 1 0 0
1625 1 3.5303136485901145e+00 4.7774587574361922e+00 4.6528041631335872e+00 0 0 0
124 1 5.2900458247654285e+00 3.5413718835415477e+00 4.2998603894784093e+00 0 0 0
177 1 1.9963243886784161e+00 4.2107107907200350e+00 3.2322724502681508e+00 0 0 0
1505 1 4.3259607317398237e+00 3.7444893852791123e+00 3.9750718706204760e+00 0 0 0
232 1 2.0959790741962010e+00 3.9305517622682511e+00 4.2934971399040309e+00 0 0 0
1117 1 4.5001669349977806e+00 3.9471030832444280e+00 1.6065334329872188e-01 0 0 1
4148 2 1.3855658580097707e+00 4.1119324275550380e+00 3.8868898604119142e+00 1 0 0
2084 1 8.9786427714477650e+00 3.7430877734648629e+00 1.5032792618397348e-01 0 0 1
1519 1 9.0592624362214504e+00 5.4047782085722340e-01 2.2120275141585184e+00 0 0 0
1689 1 9.6480543726856727e+00 2.4898550549885359e+00 4.6175610852904994e+00 0 0 0
1783 1 4.7534550014334016e+00 9.1212964844513134e-02 2.8703914150432412e+00 0 1 0
2996 1 3.3940219009090273e+00 4.6353752648631756e+00 1.1485312734579107e+00 1 0 0
50 1 4.8940258424028364e+00 4.7987569940557586e+00 1.6402879213541461e+00 0 0 0
1071 1 6.7831274131434478e+00 1.5587609014839436e+00 4.7353698914250240e+00 0 0 -1
2063 1 9.9422929577749635e+00 3.2034260138332593e+00 3.0050736203210180e+00 0 0 0
1474 1 1.0421047398891508e+01 4.3852454391402214e+00 3.3001773311602016e+00 0 0 0
628 1 6.7794771462818613e+00 4.2884444711072405e+00 4.8127569235764778e+00 0 0 0
986 1 1.3681601745086960e+00 4.6492962621967742e+00 4.6514315580222911e+00 0 0 0
548 1 5.9795195242519137e+00 2.9257265894065667e+00 4.7308754953247885e+00 0 0 0
3288 1 1.4991063679002795e-01 4.5548626833510297e-01 3.8177622456885509e+00 1 1 0
57 1 9.1109555304120393e-01 1.9144475210097947e+00 4.7152602941169093e+00 0 0 0
1906 1 6.9115954859166493e+00 2.5823777276405208e-01 4.7718700249495507e+00 0 1 0
3764 2 8.1703993220608702e+00 5.2100443266283589e-02 1.9051158645948314e+00 0 1 -1
10 1 5.2333301788445563e-01 1.1614309047478659e+00 7.7714653670958849e-03 0 0 1
1531 1 7.9714252148824816e+00 5.7385424935139845e-02 1.6819464299865007e-02 0 0 1
971 1 9.9441233219062344e+00 3.0716468186415220e+00 1.2822559491381964e-02 0 0 0
610 1 2.5573380340166532e+00 2.3979005874366490e+00 5.0125592946567954e+00 0 0 0
2986 1 3.6486301532551801e-01 1.2191784285337643e+00 5.2549036625544936e+00 1 0 0
617 1 6.1953435077589134e+00 4.4923577643505999e+00 8.0254309098742276e+00 0 0 0
1171 1 9.1340339956175445e+00 2.7442791861642744e+00 5.5679897609641209e+00 0 0 0
1069 1 3.2875379569813630e+00 1.6691827651416584e+00 5.2762795641515599e+00 0 0 0
3341 1 2.4411124877554796e-01 2.3535874850214583e-01 4.8280230556878605e+00 1 1 0
3545 2 1.2390382585575712e+00 1.4072412843269282e+00 5.6042110589785556e+00 0 1 0
199 1 6.8196367635950894e-01 1.1716571309966883e+00 6.3197323092986410e+00 0 0 0
4220 2 8.7644748853561456e+00 1.3397971535392659e+00 7.3900670447249093e+00 0 0 -1
3728 2 1.0132247343839877e+01 3.1315655586946867e+00 7.8401895583063457e+00 0 0 0
1628 1 8.6421778120911625e+00 4.2474238180897519e+00 7.9926760795282767e+00 0 0 0
706 1 1.8858698001055014e+00 9.7953002312314030e-01 5.9100719666740336e+00 0 0 0
1963 1 8.6300341093210484e+00 2.0329379411024404e+00 5.0152771041534434e+00 0 0 0
3513 2 2.4786015194420217e+00 1.5693865317670825e+00 5.7163228529092125e+00 0 0 0
842 1 2.5951275770948321e+00 8.0303030954784205e-01 5.1462021253590180e+00 0 1 0
913 1 3.0493611259225393e+00 1.2399761544525363e+00 6.2856631500241251e+00 0 1 0
517 1 5.3747937459382991e+00 4.6553820105288324e+00 9.2530556569225073e+00 0 0 0
1904 1 8.3798899695016242e+00 1.4984048464007063e+00 5.8607140478346578e+00 0 1 0
3611 2 4.3207994197214319e+00 4.9271406628745973e-01 5.4919534609989018e+00 0 0 1
3752 2 3.9950639295155006e+00 1.2923000453252536e+00 5.7270373422936318e+00 0 0 0
526 1 3.5024367244606340e+00 6.1430671484657196e-01 5.6137059056694625e+00 0 0 -1
1080 1 4.2259824396086723e+00 6.7564759206289549e-01 6.3533386641555669e+00 0 0 0
1514 1 6.6457364456886321e+00 2.9274612156428903e+00 8.9956977336303563e+00 0 0 -1
1128 1 4.8510296352544326e+00 1.2593011360555644e+00 5.7860218397979111e+00 0 0 1
1557 1 9.7374793739689309e+00 3.9332471477888737e+00 8.1912455698519668e+00 0 0 0
2053 1 9.2399963040405630e+00 1.9491801946470324e+00 6.3376274668011998e+00 0 0 0
1683 1 5.8942394768243194e+00 6.5555745160410317e-01 6.3243315014364860e+00 0 0 0
1199 1 5.7645399990814505e+00 1.3193361755514175e+00 5.2984281737474319e+00 0 1 0
3749 2 8.4534876100751823e+00 3.3791439995172241e+00 8.1395770584963039e+00 0 0 0
4122 2 6.4933275383954001e+00 8.4494680243547249e-01 5.2261467692920309e+00 0 0 0
1349 1 6.8511067334202345e+00 3.5882250779640062e-01 5.8742669234744200e+00 0 1 0
889 1 7.4693430212783483e+00 1.0063108233973439e+00 5.3124260071345013e+00 0 1 0
1021 1 8.4181658789219309e+00 2.8187663034319987e+00 9.4054043119231743e+00 0 0 0
1654 1 7.6722113356123902e+00 1.0242104659824953e+00 6.4666133859805104e+00 0 0 0
3518 2 4.2653134693026118e+00 6.6752027501744060e-03 6.8464677159375746e+00 0 1 0
323 1 2.7689219701237731e+00 3.1596900203981155e+00 9.5192098291825555e+00 0 1 -1
1681 1 9.8870850902728336e+00 1.8250823863117389e+00 5.5055363125100012e+00 0 0 0
1090 1 5.0323474776975576e+00 6.2113971923516620e-01 4.8736004040839331e+00 0 0 0
1913 1 4.1568928365207984e+00 1.1730237552827829e+00 4.8841535794735726e+00 0 1 0
1566 1 6.8581782745553044e+00 3.6321923731441523e+00 8.2387204396460323e+00 0 0 0
110 1 7.5379677947758994e-01 2.2265651791773333e+00 5.7352813075252946e+00 0 0 -1
231 1 6.2295744202699250e+00 4.8222243447275632e+00 6.8834005406334473e+00 0 0 0
695 1 1.8065363844819191e+00 2.0967665220282838e+00 5.9065034327991981e+00 0 0 0
602 1 1.4704124264506175e+00 2.7221666848640060e+00 5.0981166987373232e+00 0 0 0
2586 1 1.3577322174927846e+00 2.9981239870380305e+00 6.1691374764632450e+00 1 0 0
4302 2 2.1863043388161225e+00 3.0494391298125620e+00 5.8522649650135552e+00 1 1 0
1180 1 2.9509841891350548e+00 2.3153133905249774e+00 6.0171193868628157e+00 0 0 0
1482 1 3.4998126167203290e+00 2.8476722563545231e+00 5.2288078006272265e+00 0 0 0
370 1 2.8257147550875219e+00 4.2331750858510797e-01 8.1666408595915509e+00 0 1 0
675 1 2.9289567064554163e+00 3.3205587100668090e+00 6.2370121743489291e+00 0 0 0
676 1 2.6213005494518251e+00 3.4909488976428067e+00 5.1829433749286480e+00 0 0 0
1114 1 4.2633918249585241e+00 2.1199963154458610e+00 5.3167074057057446e+00 0 0 0
1187 1 4.8739455509274254e+00 2.2071688610897313e+00 6.2345891914360285e+00 0 0 0
659 1 3.9205612248365815e+00 2.8030395316828631e+00 6.2132956119615663e+00 0 0 0
3713 2 4.5922860392403591e+00 2.8678522237686694e+00 5.6620671098529476e+00 0 0 0
698 1 3.8487808724024712e+00 1.8246536463963938e+00 6.3431945407898951e+00 0 0 0
1177 1 5.2976959594644670e+00 2.3463010109061901e+00 5.2641446527236271e+00 0 0 0
1853 1 5.7321080618566214e+00 1.6562754351637174e+00 6.3061257834206597e+00 0 1 1
3123 1 5.7848930458344583e+00 2.7156535211000961e+00 6.2048718786084285e+00 1 0 0
3577 2 6.4824352063019957e+00 2.1441390397147462e+00 6.2914057258084508e+00 0 0 -1
1676 1 6.4172593982703017e+00 2.2997592072253528e+00 5.3404137725184970e+00 0 0 0
1647 1 6.6858973025677875e+00 1.4558955909572386e+00 5.8843611006176273e+00 0 0 0
3707 2 7.1257690791327235e+00 1.1967386889876279e+00 9.1423717642247269e+00 0 0 -1
592 1 6.7152224183014564e-01 5.0725638331316547e-01 8.6402932567896293e+00 0 0 -1
1153 1 7.3418938151647071e+00 2.1390326300058731e+00 6.5219159766967003e+00 0 0 0
3877 2 1.0445760598255957e+01 4.6645937397792059e+00 8.0257043624760733e+00 0 0 0
998 1 7.9687427131743744e+00 4.4349115898219562e+00 6.5889536633035979e+00 0 0 0
3482 2 8.6077132593365846e+00 4.5516973226557695e+00 9.5763427437732584e+00 0 0 0
2610 1 9.7055633038528146e+00 2.4115099409648613e+00 8.3506368959362458e+00 0 0 0
1688 1 9.0858856154024856e+00 4.2321302913699803e+00 5.2645800110169825e+00 0 0 0
1079 1 1.4824193550345564e+00 3.7315337026893602e+00 5.0807409913981258e+00 0 0 0
223 1 1.2504095806494260e+00 4.4381043839442436e+00 5.8357645785154526e+00 0 0 0
1133 1 2.1151689167779093e+00 3.9426183325838577e+00 5.9929766645237468e+00 0 0 0
4175 2 9.7326340971349836e+00 8.5241751658449838e-01 8.0466985396709862e+00 0 1 0
1115 1 8.5070748208771256e+00 3.5911748653366504e+00 5.9322203879948008e+00 0 0 0
601 1 3.1281273890696402e+00 4.3909612585918323e+00 5.7122190533902408e+00 0 0 0
1093 1 4.2555579712024150e+00 3.8153391829001899e+00 5.8217780688842700e+00 0 0 0
1148 1 1.6814130263577398e+00 6.5120464186549043e-02 8.6644243081833814e+00 0 0 0
2088 1 5.2320784181339901e+00 3.4470969316416458e+00 5.4056193395664467e+00 0 0 0
127 1 4.8978568281333095e+00 3.2046839463667101e+00 6.3960565954246205e+00 0 0 0
784 1 7.9283407878408267e+00 6.6850478562008819e-01 7.3959212687766618e+00 0 1 0
1085 1 6.3114620585642447e+00 3.6675730453774724e+00 5.4334311142632652e+00 0 0 0
3016 1 5.9041665660140863e+00 3.7998859432004575e+00 6.4198538819947730e+00 1 0 0
1184 1 6.9844442007122343e+00 3.9472217222583037e+00 6.1755443809094839e+00 0 0 0