LAMMPS data file via write_data, version 12 Dec 2018, timestep = 406560

4320 atoms
2 atom types

0.0000000000000000e+00 1.9309999999999999e+01 xlo xhi
0.0000000000000000e+00 1.9309999999999999e+01 ylo yhi
0.0000000000000000e+00 9.6549999999999994e+00 zlo zhi
5.9474799999999988e+00 0.0000000000000000e+00 0.0000000000000000e+00 xy xz yz

Masses

1 1
2 1

Atoms # atomic

4263 2 5.5544989194834544e+00 4.2289847931795350e+00 2.2811047002924183e+00 1 0 0
767 1 6.5577623150252293e+00 3.1243961315864499e-01 1.0728690205756262e+00 0 1 0
1433 1 8.9571331264243756e+00 4.1574815945246737e+00 1.4662994681996999e+00 0 0 0
2159 1 9.2854042126629572e+00 2.7992566151812310e+00 3.8875804210886633e+00 0 0 0
1684 1 1.0466639347393896e+01 3.1410754276506774e+00 2.1946081097913885e+00 0 0 0
1502 1 7.8539346505312109e+00 4.3039798002469665e+00 2.0036727109659016e+00 0 0 0
3867 2 8.5237516591870666e+00 4.5101026227361007e+00 4.6390860981544160e+00 0 0 0
3622 2 5.3310480768561608e-01 1.4391583676193245e+00 7.0164906066999755e-01 0 0 1
1979 1 8.7826125794199115e+00 2.0305498259710930e+00 2.3671688785622020e+00 0 0 0
851 1 1.3666715548016013e+00 1.4622440421697991e+00 6.3897538465379500e-01 0 1 0
253 1 1.7488380283164873e+00 7.7052668838780958e-01 1.2096805989671977e+00 0 1 0
1190 1 2.2208808573718182e+00 1.6901689873339165e+00 1.1960851950624485e+00 0 0 1
3918 2 2.1281876421723913e+00 1.7665438784530771e+00 3.1886894847532177e-01 0 1 0
30 1 5.6504315576684752e+00 3.4819535332268052e+00 4.1560495832202191e+00 0 0 0
1127 1 2.2998124112654090e+00 9.1993598952189859e-01 2.4913353153776557e-01 0 0 1
1554 1 3.1771144584137643e+00 1.3297011163008956e+00 9.5204687303890034e-01 0 0 1
4116 2 2.6884377974854390e+00 9.0649796403727168e-01 1.6199233021014641e+00 1 0 -1
95 1 3.6108681689788136e+00 5.6211857619717642e-01 1.5603548334871733e+00 0 0 0
2513 1 8.3889074899823797e+00 3.2381334392335653e-01 1.1162839036206818e+00 0 0 0
2275 1 1.0163045548766570e+01 3.2601653519850209e+00 1.1376775604150611e+00 0 1 0
870 1 4.1389102014733492e+00 1.4771011720021641e+00 1.3473599584175595e+00 0 1 1
1798 1 4.7906374986599536e+00 7.0472943561182733e-01 1.0986031145785018e+00 0 1 0
1098 1 7.5616189581296975e+00 1.6315779920637237e+00 1.0414499528371637e-01 0 0 1
1711 1 8.3510250324683124e+00 2.2843503891366361e+00 5.2192786039339667e-01 0 1 0
1615 1 5.8287077033974626e+00 1.0551306503433973e+00 1.0905502615773282e+00 0 0 1
1678 1 8.3886991904664328e+00 2.7076040894323601e+00 3.0955072880332319e+00 0 0 1
987 1 5.0005156842096570e+00 1.4644021380204584e+00 3.0006526297151537e-01 0 0 0
4044 2 1.0805571598317076e+01 3.7516135147489011e+00 1.5648771201409564e+00 0 1 0
1485 1 9.2680641245190856e+00 3.4370117072232503e-01 2.6030572658608526e+00 0 0 0
3468 2 6.9989558502451708e+00 1.0330771988356093e+00 1.0424625804423160e+00 -1 0 1
513 1 4.0944289446150064e+00 4.4792855265245013e+00 4.7527690123962776e+00 0 0 0
1470 1 8.3316110521186744e+00 2.4751451880890949e+00 1.5734112641160436e+00 0 0 0
577 1 2.1896320433714282e+00 2.5431212396527531e-01 2.0120429786549425e+00 0 0 0
1536 1 6.8466143500006638e+00 4.6051239709380560e+00 1.7768694466309831e+00 0 0 0
115 1 7.2272602250349749e-01 8.4661613979931771e-01 1.3668945410615303e+00 0 0 0
2081 1 9.8801804869046812e+00 1.8813996509903281e+00 4.0339740390571084e+00 0 0 0
2460 1 1.0147378626286079e+01 3.6615407832445568e+00 3.8689568059944350e+00 0 0 0
3590 2 5.4183064817869617e+00 4.4783020645476430e+00 4.0576436037028465e+00 0 0 -1
1160 1 7.5362651472198063e+00 4.3391369420942161e-01 1.5851849327590237e+00 0 0 0
21 1 1.4157215258435725e+00 2.3543490424282401e+00 9.2585164729194910e-02 0 0 0
622 1 1.2848746266799673e+00 3.1951773250368207e+00 8.3836855834311452e-01 0 0 1
3750 2 1.5415149977131479e+00 2.2439976856803749e+00 9.4331616791161577e-01 0 0 1
34 1 2.3756076405135698e+00 2.6323173080489930e+00 5.9381746734543561e-01 0 0 0
1065 1 1.9438031644030120e+00 2.7431392618679604e+00 1.5391930353861278e+00 0 0 0
968 1 3.5099881773913295e+00 2.4452029047239248e+00 5.7961371156164387e-01 0 0 1
3708 2 2.9917613579524311e+00 2.1413522218648229e+00 1.1977595912580468e+00 0 0 0
1166 1 2.9960891408982970e+00 3.0723867320764304e+00 1.4242012727269249e+00 0 0 1
3768 2 3.3444240351465955e+00 3.2249214100710506e+00 5.9574433994324461e-01 0 1 0
3676 2 7.8240939958638611e+00 9.1932957667367465e-01 2.2532527350461642e+00 0 1 1
3757 2 4.9833691470136534e+00 1.6399598676483187e+00 1.1666929941552573e+00 0 0 1
1764 1 4.4822109474474674e+00 2.3452433769798953e+00 8.5064494546648617e-01 0 1 0
1617 1 5.5767440830517092e+00 2.2060088695558240e+00 9.9968981712658489e-01 0 0 1
2174 1 3.9287764242536611e+00 4.0705920823120134e-01 5.4480873364589522e-01 0 1 0
1499 1 6.5936800946933758e+00 1.8579693200502776e+00 1.1313853766241229e+00 0 0 1
1544 1 8.4146675852149997e+00 1.2136465675673676e+00 5.5619092612537346e-01 0 0 0
1946 1 9.6099225492340139e+00 3.8168772603966619e+00 2.2678990650151922e+00 0 0 0
1965 1 8.4475545942263217e+00 1.1370795670109948e+00 1.7135527505027952e+00 0 0 0
1145 1 8.0508485317997671e+00 4.0557311725864205e+00 3.9688898730984037e+00 0 0 0
1526 1 3.6456362660380441e+00 2.9208272340632280e+00 4.7986438592070497e+00 0 0 0
4242 2 9.0979940486489710e+00 3.1690972506892129e-01 1.6940095016780792e+00 0 0 1
2048 1 1.0550744977629380e+01 4.2961009760770885e+00 2.3666870085242628e+00 0 0 0
4133 2 9.6169264010818196e+00 4.3540280575850190e+00 3.9527584006201906e+00 0 0 0
4228 2 1.2455502362237552e+00 3.3863644683426219e-01 1.7939121469341133e+00 1 0 0
1513 1 6.4897164258649056e+00 4.0591367331934718e+00 8.7714648265668294e-01 0 0 0
952 1 7.5954174595299069e+00 1.5964827097804850e+00 1.2507958310168219e+00 0 0 0
656 1 2.6855787078324682e+00 3.7125997906943402e+00 4.9842627679228446e-01 0 0 1
1441 1 9.3518066078266706e+00 1.5730741141947926e+00 1.8952964015600543e-01 0 0 0
717 1 1.7813524263817526e+00 4.1632712327810149e+00 7.8167187365364832e-01 0 0 1
1689 1 8.9850481850692745e+00 2.1075331969379083e+00 4.7754812407047398e+00 0 0 0
668 1 2.2587367770668498e+00 3.8060423806783072e+00 1.5985944745270222e+00 0 0 0
2201 1 8.1154292477861851e+00 3.4974784502980767e+00 1.2007521439424371e+00 0 1 0
1472 1 8.6343750469280671e+00 3.4270879884027128e+00 2.2081093507519540e+00 0 0 0
1019 1 4.1656654900644536e+00 3.3198009330472602e+00 1.0108312207793824e+00 0 0 0
1198 1 3.3595889653573727e+00 4.0391068469474378e+00 1.1930344053928392e+00 0 1 0
3627 2 4.3102460193601742e+00 4.1982600878728764e+00 8.6242670913654185e-01 0 0 1
1870 1 7.5676303464750978e+00 6.9392277602446673e-01 5.1561655836211939e-01 0 1 1
3503 2 7.3598842125262296e+00 1.6547210521889713e+00 3.7099879174536623e+00 -1 0 2
567 1 5.2360202400425777e+00 3.1895216971402744e+00 1.2112507176551111e+00 0 0 0
669 1 4.9252108986388716e+00 4.1476761545294689e+00 1.5110919046094096e+00 0 0 1
3865 2 5.5289184558439626e+00 3.9012659078655636e+00 8.6544056130589886e-01 0 0 0
1051 1 4.9152092807636425e+00 3.7048664933559903e+00 3.6626970553148686e-01 0 0 0
1783 1 3.7599451120353122e+00 3.1437671350241470e-01 3.1459736087744803e+00 0 1 0
3588 2 1.8232858829473972e+00 4.2061141287377932e+00 3.6093131697151963e+00 0 0 0
3771 2 8.5311055724169975e+00 3.2537412747179801e+00 3.7500587445675833e+00 0 1 -1
503 1 7.4439871817154160e+00 2.5982217935784768e+00 1.0688591599603354e+00 0 0 0
1506 1 6.3365835394109382e+00 2.9609282829167771e+00 1.1164432289580970e+00 0 0 0
1564 1 7.2881213574317929e+00 3.4299560342919402e+00 5.0572027077990089e-01 0 0 1
1572 1 7.0841175081540539e+00 3.5649373203913748e+00 1.6033634272409465e+00 0 0 1
1671 1 9.0741066571534095e+00 3.1856768000542091e+00 7.9253639723012126e-01 0 0 1
4296 2 6.8004944624417050e+00 4.7889195584424211e+00 4.5108366750391946e+00 1 0 0
2006 1 9.6664825514481052e+00 4.0935584950317905e+00 5.7669486943042136e-01 0 0 0
94 1 1.0702460254337143e+00 6.2545689167129059e-01 3.4343442182639548e+00 0 0 0
2145 1 9.0375382969708475e+00 1.7517522285441114e+00 3.3748517243860179e+00 0 0 0
2468 1 9.0704823808391666e+00 1.8350123664451190e+00 1.2849418229440466e+00 0 0 0
1022 1 2.6370184027690549e+00 4.7227070161847751e+00 3.1228423846182616e+00 0 0 -1
2996 1 2.6015442098319257e+00 4.7650315876423077e+00 1.1479996291373868e+00 1 0 0
2649 1 1.0328871780659375e+01 2.7250269002570167e+00 3.3515714481348020e+00 0 0 0
1519 1 8.2923513738197787e+00 1.8749166539931394e-01 2.1853937366617573e+00 0 0 0
1000 1 1.2841708361808113e+00 1.8915853010035029e+00 1.6903922737277464e+00 0 0 0
4214 2 8.6254684485709721e-01 1.8053522964287219e+00 2.5538868792628526e+00 1 0 0
817 1 1.1521670426343942e+00 1.0069363931027384e+00 2.3719506026661610e+00 0 1 0
159 1 2.2101342326432367e+00 1.3490296065060412e+00 2.1690792690889658e+00 0 0 0
992 1 1.3454684535813211e+00 1.6156533333029786e+00 3.2376644376822807e+00 0 0 0
966 1 1.9730398529610622e+00 6.7610710051747769e-01 2.9543707760925262e+00 0 0 0
1134 1 2.4971179447970040e+00 1.6596718576362259e+00 3.0766777605791971e+00 0 0 1
1040 1 3.3296314963297120e+00 1.4937926646104358e+00 1.9584421441872009e+00 0 0 0
1358 1 2.9455562147129082e+00 7.3904883855325765e-01 2.5817188134865190e+00 0 1 1
1621 1 7.0634020757115188e+00 4.0829308051049473e+00 3.2530340655286238e+00 0 0 0
3878 2 3.8084356973826798e+00 8.9618400647674490e-01 2.3456998516763292e+00 0 0 1
631 1 3.4464744190841876e+00 1.2483726286847479e+00 3.3483794336904937e+00 0 0 0
3756 2 5.2227425327052144e+00 3.7509214335172969e-01 1.8049461184806910e+00 0 0 1
1357 1 4.4686831004494829e+00 3.5551388909368897e-01 2.2118393090539525e+00 0 1 1
575 1 4.6619846676938250e+00 8.7090505798494267e-01 3.1011569683268361e+00 0 0 0
722 1 5.0437593429643330e+00 1.2121670413687518e+00 1.9458587176332407e+00 0 1 0
1147 1 5.4659319056702751e+00 3.6071123849110165e-01 2.7106742130221075e+00 0 0 1
1351 1 6.0899347953324865e+00 5.6030155517354918e-01 1.9499049618128039e+00 0 1 0
3635 2 8.8257340858842976e+00 2.0444131185105421e-01 4.3606161934791778e+00 0 0 1
2538 1 9.3439253879300352e+00 8.4888930199521639e-01 1.0875198267567481e+00 0 0 0
1457 1 9.0994297566454900e+00 3.7465386329721837e+00 3.2779154874340621e+00 0 0 0
955 1 6.3083968791188108e+00 4.4703278256751373e+00 3.8530634945669053e+00 0 0 0
3492 2 4.3722461615725738e-01 5.9043013736264127e-01 2.6892974786371533e+00 0 0 0
3040 1 3.0431792482967990e+00 4.6258311274083832e+00 1.9236991098235157e-01 1 0 0
1071 1 5.8599025113638854e+00 1.2557032720962304e+00 4.6442610046067809e+00 0 0 -1
3847 2 7.9318535812980224e+00 4.6726961497264883e+00 3.2393637208882224e+00 0 0 0
2131 1 1.0914178964257474e+01 4.7417279884349552e+00 3.4422496773665947e+00 0 0 0
1031 1 1.0849270794620292e+01 4.0676897543625721e+00 7.2801061325955552e-01 0 0 0
1588 1 8.8807242210843818e+00 4.6913933733151323e+00 3.6711651047380003e+00 0 0 0
1117 1 3.7424763024996168e+00 3.8814124527262823e+00 2.0505177054935989e-01 0 0 1
166 1 9.2805892459484374e-01 2.6277078963637286e+00 3.1251744658819520e+00 0 0 0
1376 1 1.7807050174728394e+00 2.3591860619589009e+00 2.5580683378943947e+00 0 1 0
3606 2 1.6738777208227216e+00 3.1703322506126077e+00 2.2490419022464962e+00 0 0 0
2941 1 2.5179054667217438e+00 3.2426331332676082e+00 2.4508763689755000e+00 1 0 0
3608 2 2.4299652635894486e+00 2.5191283683311920e+00 3.0319536706548491e+00 0 0 0
3128 1 1.8042931614906368e+00 3.2976839587945594e+00 3.2685508987792966e+00 1 0 0
555 1 2.7648416521149377e+00 2.3058551559624361e+00 2.0469535870977840e+00 0 0 0
505 1 3.7889484552592423e+00 2.4214990233494946e+00 1.7549323601918532e+00 0 0 0
663 1 3.3670798464127909e+00 2.3939355156338959e+00 2.9119244000349842e+00 0 0 0
3686 2 3.3398991565512466e+00 2.9466534096417596e+00 2.3001367628641916e+00 0 1 0
1446 1 4.3566426394166085e+00 2.7144787797905785e+00 2.6085010441250378e+00 0 0 0
568 1 4.2847581929687166e+00 1.6440190232080336e+00 2.4850021820833290e+00 0 0 0
3703 2 4.4898544717258684e+00 2.9554078485197155e+00 1.7463731226035677e+00 0 0 0
3533 2 5.4399984828638743e+00 1.2069621301506235e+00 2.7488393874035766e+00 0 1 0
1462 1 4.9629287325126761e+00 2.2894922423726847e+00 1.8507972123779073e+00 0 0 0
1511 1 5.2251175854120060e+00 2.0202698718158940e+00 2.8802403952898619e+00 0 0 0
1561 1 5.8733086658075049e+00 2.7825351058756285e+00 2.0346885966863444e+00 0 0 0
2197 1 6.3036033685469661e+00 1.0623881509405240e+00 2.8548412916110104e+00 0 1 0
566 1 5.9449426956067626e+00 1.6925275585555195e+00 2.0604014281837078e+00 0 0 0
1437 1 6.8608350792753363e+00 2.3705645916042450e+00 1.9568439002843929e+00 0 0 0
2101 1 6.9328605526381599e+00 1.2313797033834337e+00 1.9262287034330225e+00 0 0 1
3946 2 6.8096503447263359e+00 1.7413912190336025e+00 2.5917759841006016e+00 0 1 0
1721 1 6.2675953830041138e+00 2.2332283349011774e+00 3.0134253387373922e+00 0 1 0
2421 1 7.3685760804436793e+00 2.2872232992358228e+00 3.1894134453418572e+00 0 0 0
2689 1 8.4853016115194713e+00 1.0344598857908065e+00 2.7346355121332371e+00 0 0 0
1988 1 1.0185594601335938e+01 2.0422823121060758e+00 1.6342858588422495e+00 0 0 0
1191 1 4.6418937343990541e+00 4.4617335254893584e+00 3.7819349727075604e+00 0 0 0
1696 1 6.9878766651598596e+00 3.8638762210617150e+00 4.3083010387435081e+00 0 0 0
1489 1 9.8934686219089780e+00 1.0014313319461590e+00 3.1444636789600091e+00 0 0 0
2037 1 6.3898138480731514e+00 4.4363692110853634e+00 2.6805807297604671e+00 0 0 0
615 1 1.2256264558472783e+00 3.7549790441541053e+00 1.7010379937812010e+00 0 0 1
2112 1 1.0019208802832088e+01 4.3552541527242177e+00 1.4774109102104005e+00 0 0 0
1029 1 5.6320646967745684e+00 6.3778140139400574e-01 2.2152125122701705e-01 0 0 0
2141 1 7.5021836771556218e+00 4.3672767361033644e+00 8.9828978758730138e-01 0 0 1
242 1 2.7137664266164179e+00 3.6268317049500265e-01 1.0213645290225435e+00 0 0 1
2592 1 1.0445157720347582e+01 4.6455708671834541e+00 4.3842681654879243e+00 0 0 0
1039 1 3.0074121532641382e+00 4.2689944505206237e+00 2.1720318523694071e+00 0 0 0
4238 2 1.7465923193340771e+00 4.5530233980864798e+00 1.5862545446342009e+00 1 0 0
3619 2 2.5169857804611357e+00 3.7648725920841200e+00 3.1183171500930147e+00 0 0 1
586 1 1.8673480202958523e+00 4.0785569434008195e+00 2.5083973335256999e+00 0 0 0
2132 1 8.9331329198783020e+00 5.6168669328626886e-01 3.5495240262284162e+00 0 0 0
1682 1 6.5744438967848930e+00 2.9858184583832670e+00 3.6802844096331477e+00 0 0 0
1440 1 3.4071934111722904e+00 3.5012597513169270e+00 2.9376686204759768e+00 0 0 0
664 1 4.0014856459888328e+00 3.5983865208810588e+00 2.0653179357910116e+00 0 0 0
550 1 3.7607000970561320e+00 4.5533668423036753e+00 2.9332163567597203e+00 0 0 0
655 1 4.6835599743239777e+00 4.4506174651690040e+00 2.5320271407969459e+00 0 0 1
994 1 4.4674392822762350e+00 3.5996050169848051e+00 3.2063680760490185e+00 0 0 0
1428 1 5.9666471738760682e+00 3.7475826753630868e+00 1.7567332169255740e+00 0 0 0
1613 1 8.9916961117536420e+00 3.8832117249980644e+00 4.3792405650219886e+00 0 0 0
534 1 5.6312656012933475e+00 3.1189340807909782e+00 3.0767168274109817e+00 0 0 0
1271 1 5.0678745947955557e+00 3.5045487420654071e+00 2.2625931833901101e+00 0 1 0
1474 1 9.8715680000518553e+00 4.3716674540618818e+00 3.1134864259906201e+00 0 0 0
3838 2 6.1736765062424688e+00 3.7820421234240085e+00 3.4174551837905200e+00 0 0 0
3127 1 2.5841909235641491e+00 4.1097306479038123e+00 3.9816399837870522e+00 1 0 0
1072 1 7.6344327653425399e+00 2.9090273590720241e+00 2.3552000538068407e+00 0 0 0
1535 1 6.5516703774567180e+00 3.3177373190941344e+00 2.5976234079318359e+00 0 0 0
3964 2 7.2846491230271351e+00 3.2805209625884344e+00 3.1247875517497903e+00 0 1 0
1858 1 7.3156727841852227e+00 1.0826371775779642e+00 4.4711983187795745e+00 0 1 0
1103 1 7.9235785128174667e+00 2.7577724820284910e-01 4.2354194957913593e+00 0 0 0
2076 1 7.3954182959972368e+00 1.2283596725120070e+00 2.9467395327787003e+00 0 0 1
1122 1 9.0471177080906990e+00 4.4901167384368185e-01 8.2453458663562545e-02 0 0 0
50 1 4.0734597239498935e+00 4.7817668042542785e+00 1.5743334876180923e+00 0 0 0
1607 1 8.6128295758272326e+00 4.3802485670758955e+00 4.9825176380561920e-01 0 0 1
599 1 2.2485023555548120e+00 3.8369271867026339e-01 4.1222202281885210e+00 0 0 0
4129 2 1.0102632768373466e+01 3.5092427269757280e+00 2.9337693484686502e+00 1 0 1
3565 2 7.7171678468610425e+00 3.6467590971146597e+00 4.6403493699618146e+00 0 0 0
1538 1 7.9367372679562447e+00 1.5945990039019708e-01 3.1748878858186700e+00 0 0 0
2631 1 9.9012207125776683e+00 1.9771058064446894e+00 2.6858998079463654e+00 0 0 0
3775 2 6.2797451984945480e+00 2.0317013620818664e-01 2.9519363193709678e+00 0 1 0
1880 1 8.0528979982252729e+00 3.6196375253250559e+00 3.0103261082422952e+00 0 0 0
1584 1 7.2647700994406228e-01 1.4177692760096898e+00 4.0490500003391219e+00 0 0 0
3464 2 1.7777922640682311e+00 1.0519391544695489e+00 3.7902014743324757e+00 0 0 -1
652 1 1.6956438705598667e+00 1.5633307764817830e+00 4.5527308350057840e+00 0 0 0
1622 1 7.6488478691261967e+00 3.0761485726945006e+00 3.8523996306443622e+00 0 0 0
991 1 7.0389855594963295e+00 3.6853723104204389e-01 2.5040615523908127e+00 0 0 0
4264 2 2.6521846733001371e+00 7.7858793369275070e-01 3.4833743153686316e+00 1 0 1
1054 1 3.2911647683248133e+00 4.4514533300616493e-01 4.0665092459829193e+00 0 0 0
481 1 2.5647409966970738e+00 1.3682063181795034e+00 4.0912231960559673e+00 0 0 0
235 1 4.2294450925800255e+00 1.0560408596739503e+00 3.9881820269898065e+00 0 0 0
887 1 1.1554513144948932e+00 5.1945385254717624e-01 4.4744525738436804e+00 0 1 0
3856 2 5.1587338390426671e+00 2.2488076707468557e-01 3.5430318046142357e+00 0 0 0
2360 1 5.1123059679715883e+00 5.6428949397233963e-01 4.3841519335403554e+00 0 1 0
1066 1 9.7508748351242218e+00 2.3789436196072429e+00 7.4430471086703232e-01 0 0 0
3587 2 7.1833224325552356e+00 3.9068514149372886e+00 2.3941602256227319e+00 0 0 0
1950 1 7.0291350157985981e+00 4.7542527325720341e-01 3.6536620323085347e+00 0 0 0
4029 2 6.5372848266361006e+00 6.6812168913995051e-01 4.3286326204343988e+00 0 1 0
580 1 5.9570197507865110e+00 2.8668462167170872e-01 3.7133797418316123e+00 0 0 0
2084 1 8.2297794699128843e+00 3.3158893015718376e+00 1.4813539569088541e-01 0 0 1
1488 1 5.8641221727268862e+00 4.3765174288025346e+00 5.3482741223433938e-02 0 0 0
1425 1 8.1748132867105952e+00 2.2029091116313908e+00 3.9298961511721151e+00 0 1 0
2544 1 1.0459336962775362e+01 2.8284520221866640e+00 4.4676012441077937e+00 0 0 0
1242 1 3.9528120312589010e+00 1.5269155346829291e+00 2.5651168199197338e-01 0 1 0
906 1 7.7899886533817302e+00 1.9186164356880000e+00 2.2530223245265355e+00 0 1 0
1562 1 5.8196203624950344e+00 4.7718827271559832e+00 1.3906392762812658e+00 0 0 1
3772 2 1.4772353128732787e+00 5.5113098195990073e-01 4.4567298856860998e-01 0 1 1
1001 1 6.8003759749277100e+00 2.5265313231277671e+00 2.4208515851079904e-01 0 0 0
1359 1 6.6279167326338149e+00 1.1246512206245916e+00 3.0315204915843552e-01 0 1 1
2854 1 9.4944722492341516e+00 9.2099207072744327e-01 4.3617347835015661e+00 0 1 0
4281 2 9.8829323439030965e+00 9.2591156250090567e-01 2.6654506987345011e-01 0 1 0
744 1 4.9998303416240759e+00 4.7653369379265227e+00 7.2280139901048868e-01 0 1 0
232 1 1.4028276942954228e+00 4.2397968645729156e+00 4.3605360247285132e+00 0 0 0
543 1 1.0755856483074546e+00 2.4746966220675075e+00 4.2712203606305454e+00 0 0 0
1165 1 1.9511016463722886e+00 2.3713914349881962e+00 3.6928947227573699e+00 0 0 0
802 1 1.9849946989087877e+00 3.2603841911922875e+00 4.3108934978413238e+00 0 1 0
572 1 2.7648313994471825e+00 3.0393941984055082e+00 3.5985437873238131e+00 0 0 0
1167 1 2.6403425229894779e+00 2.3637008753354314e+00 4.4894365791372257e+00 0 0 0
3482 2 7.7867881706210271e+00 4.0448381791657173e+00 5.0347225578588339e-02 0 0 1
3719 2 2.9244460636322644e+00 3.2924260354609358e+00 4.3835922431163450e+00 0 0 -1
4119 2 3.0557999380850607e+00 2.1109364400130111e+00 3.6362165664065103e+00 0 0 0
1007 1 3.6017092146687619e+00 1.9263554596906225e+00 4.3334844288277230e+00 0 0 0
2164 1 3.7783590696223479e+00 2.8627272783667812e+00 3.7625490165059179e+00 0 0 1
3884 2 4.2996449424756991e+00 2.4474361136152720e+00 4.3820761322859569e+00 0 0 1
1062 1 4.2512175602618427e+00 1.9743985381326719e+00 3.4269810843683013e+00 0 0 0
1194 1 5.4469032594526903e+00 1.2452114765814708e+00 3.6165710485768940e+00 0 1 0
814 1 4.9356818097135635e+00 1.7862564211507352e+00 4.3766045291922469e+00 0 1 0
1081 1 4.8456007458282002e+00 2.7692011685361386e+00 3.7292774805326303e+00 0 0 1
860 1 5.9016150025812344e+00 2.2432020508706176e+00 4.1234687626051594e+00 0 1 1
3460 2 8.1149872678498181e+00 1.8211976277470980e+00 3.0981099100944598e+00 -1 0 0
2250 1 8.1228131698460011e+00 1.1895635558945408e+00 3.7655255080840599e+00 0 1 0
2098 1 5.8730402754441613e+00 3.3832327384476706e+00 3.1506731211333611e-01 0 0 1
1573 1 6.5174465280232612e+00 1.4412810372606417e+00 3.7926549493409731e+00 0 0 0
537 1 7.0813003412998601e+00 2.2869154992988774e+00 4.2445432392671236e+00 0 0 0
508 1 5.4584477227520747e+00 4.1683395872237536e+00 3.2453595417449437e+00 0 0 0
964 1 9.3965819426453301e+00 2.6945339233395060e+00 1.7484089940694616e+00 0 0 0
2063 1 9.4091115385055559e+00 2.8546402039213974e+00 2.7995283688348711e+00 0 0 0
124 1 4.4819797251385962e+00 3.5422578940624505e+00 4.3207661757437510e+00 0 0 0
137 1 6.6171986201495925e-01 6.6558151400542109e-01 3.4937589496314864e-01 0 0 1
1505 1 3.6516905480251429e+00 3.8668787249978487e+00 3.8798002679923074e+00 0 0 0
2108 1 6.4395949054406971e+00 2.9540370051243334e+00 4.7674844506660676e+00 0 0 0
1137 1 8.7426495891218572e+00 4.4575656664509502e+00 2.6647355608219794e+00 0 0 1
3121 1 8.4772407117751776e+00 3.0130741809667350e+00 4.5344572889749362e+00 0 0 0
2850 1 9.4273310231923215e+00 1.2321470619260613e+00 2.1264054584104435e+00 0 1 0
4208 2 1.0521895621592015e+00 3.3007699571422218e+00 4.5831997929764894e+00 1 0 0
4177 2 4.1227780984583458e+00 1.3535065798809744e+00 4.7917926401083566e+00 0 1 0
548 1 5.0657657258280819e+00 2.7767896677455997e+00 4.7213323879618905e+00 0 0 0
624 1 5.8940277933584833e+00 1.8588215008942530e+00 5.4208167618623765e-02 0 0 1
975 1 8.5433031306111644e+00 9.9244101104039639e-01 4.7585230272159791e+00 0 0 0
558 1 8.4211906870716080e-01 2.7254129335568211e+00 2.0886712678101347e+00 0 0 0
1050 1 5.1539668123370177e+00 2.6291407860122824e+00 9.8633557189490587e-02 0 0 0
733 1 4.2446736308618211e+00 3.0273129162683565e+00 2.2574879069436643e-02 0 1 0
1527 1 9.9092892614639094e+00 3.2397926374210506e+00 2.3908100430485735e-02 0 0 0
2106 1 7.0180616886965899e+00 4.4672198789142623e+00 9.4709709893531398e-03 0 0 1
3688 2 2.3253706744312423e+00 4.0170431391736416e+00 4.8114120923104329e+00 0 1 0
574 1 3.1842092438635139e+00 3.9388438038324312e+00 4.7994636081517710e+00 0 0 0
2100 1 9.3486303341820864e+00 3.2360279061472448e+00 6.0108494847150249e+00 0 0 0
1626 1 6.2382501065411908e+00 2.0082137745191583e-01 9.0353750821005772e+00 0 0 0
617 1 5.4985218672767386e+00 4.2512206119748770e+00 7.8605138469240359e+00 0 0 0
1171 1 8.5537191638614534e+00 2.7456963529169234e+00 5.6579772056579030e+00 0 0 0
1069 1 2.3684999058345646e+00 1.6555017927277762e+00 5.3143772967191580e+00 0 0 0
1082 1 1.0348824503339468e+01 2.7808654077368691e+00 5.7493992042230078e+00 0 0 0
3584 2 1.1432677163682627e+00 1.4245626586207414e+00 9.5182709890758570e+00 0 0 0
2038 1 1.0276430172362144e+01 3.7960331845489979e+00 6.0290363446655970e+00 0 0 0
4220 2 7.6892682373892232e+00 1.1449198145692092e+00 7.3597139068667641e+00 0 0 -1
3728 2 9.0887954451902893e+00 2.9248429956535400e+00 7.9626409553404969e+00 0 0 0
1628 1 7.8747681288861680e+00 3.9153147918131448e+00 8.0459308936634653e+00 0 0 0
706 1 8.1568637642584862e-01 1.2576136862278069e+00 6.0702967260652061e+00 0 0 0
2128 1 1.0127068174492239e+01 2.0530099652087239e+00 5.0469412104492326e+00 0 0 0
3513 2 1.5525160753104656e+00 1.7383309393720279e+00 5.5339288874243096e+00 0 0 0
842 1 1.5410035035669516e+00 9.2115373237347509e-01 5.3523024770245344e+00 0 1 0
913 1 1.9722249513951369e+00 1.3369679623626318e+00 6.3349205023913830e+00 0 1 0
517 1 4.5318171796083897e+00 4.5156672057060856e+00 9.3268013914452812e+00 0 0 0
1904 1 7.7343013247026784e+00 9.7944178603736320e-01 5.4340104262446882e+00 0 1 0
3611 2 3.3915156336830323e+00 4.2904973570808802e-01 5.4717604592988662e+00 0 0 1
3752 2 3.0099317638454606e+00 1.3421108694914408e+00 5.8383667418841849e+00 0 0 0
526 1 2.5102663201785802e+00 6.6438497015211639e-01 5.7314422515147241e+00 0 0 -1
1080 1 3.3402982234124972e+00 7.1938034099295312e-01 6.3701116880114839e+00 0 0 0
1514 1 5.9877033572071889e+00 2.7795795212576064e+00 9.0558934154678070e+00 0 0 -1
1128 1 3.8904717164121321e+00 1.2164245739265935e+00 5.6447832152870943e+00 0 0 1
1557 1 8.9068421944979637e+00 3.7339885000401081e+00 8.2122543631492260e+00 0 0 0
2053 1 8.4955772432168892e+00 1.7579776897827453e+00 5.9654197695066609e+00 0 0 0
1683 1 5.0436188728179721e+00 6.2141524099883461e-01 6.2680121461956455e+00 0 0 0
1199 1 4.9478205001013560e+00 1.1610702145900400e+00 5.2668049294581474e+00 0 1 0
3749 2 7.7827084270145246e+00 3.0484043575090625e+00 8.4104575844027210e+00 0 0 0
4122 2 5.6051517368675725e+00 6.2502459485622730e-01 5.2150202231671345e+00 0 0 0
1349 1 5.8579256563884536e+00 1.6733930740426570e-01 5.9501401492930777e+00 0 1 0
889 1 6.5911838751566840e+00 5.9211618082005490e-01 5.1937748453917134e+00 0 1 0
1021 1 7.6892454893538567e+00 2.5592983848680615e+00 9.3565988459252463e+00 0 0 0
1654 1 6.8176074881336568e+00 9.5842844299245911e-01 6.1164140315596063e+00 0 0 0
1133 1 1.4230772722582721e+00 4.1841116760272321e+00 6.0750532485510762e+00 0 0 0
3814 2 3.5727924167925129e-01 5.7480260029549146e-01 6.4471948832177226e+00 0 1 0
1549 1 9.1987209504181280e+00 2.0038752097410742e-01 5.1439235812875213e+00 0 0 0
2612 1 9.8774170842382212e+00 1.7318508361973302e+00 8.3300208376383722e+00 0 0 0
2900 1 9.5114382420653065e+00 3.1391936744128907e-01 7.0783231225169709e+00 0 1 0
1566 1 6.0332709782766996e+00 3.3777376131935508e+00 8.1297279357495551e+00 0 0 0
2619 1 9.7230338426042184e+00 4.1143600911243405e+00 6.8960384247450914e+00 0 0 0
592 1 4.2756742982109164e-01 9.8351841924075578e-01 9.0822289523511870e+00 0 0 -1
695 1 1.0329399026561676e+00 2.2653369720270136e+00 5.9834178081312421e+00 0 0 0
3975 2 1.0460192691763590e+01 3.6472376170490546e+00 7.0832641733883817e+00 0 0 -1
3761 2 6.4978226221660158e+00 4.3934587175214030e+00 6.8465591271980157e+00 0 0 0
4302 2 1.3615612046237104e+00 3.1056993998622278e+00 5.9850858531242110e+00 1 1 0
1180 1 2.1090598771737232e+00 2.4306770590699291e+00 6.1171637981041087e+00 0 0 0
1482 1 2.6631706637640962e+00 3.1666723251504805e+00 5.2714610196589486e+00 0 0 0
370 1 1.8782177332119829e+00 4.5465630242726007e-01 8.2531583621256495e+00 0 1 0
675 1 2.1249722123860648e+00 3.4379266681847764e+00 6.1929434796498741e+00 0 0 0
676 1 1.6345512034386274e+00 3.6735519281737257e+00 5.2544439619678336e+00 0 0 0
1114 1 3.2943187003597512e+00 2.1296110374306174e+00 5.3893341028660862e+00 0 0 0
1187 1 3.9572594429228860e+00 2.1216000527364822e+00 6.2002144440521736e+00 0 0 0
659 1 3.0924361468619055e+00 2.9228788269727533e+00 6.2137553179501790e+00 0 0 0
3713 2 3.8414007726378614e+00 2.7716389064524982e+00 5.6682410817406126e+00 0 0 0
698 1 2.9406833070885057e+00 1.9326041653506094e+00 6.4841249537584211e+00 0 0 0
1177 1 4.3567063623444238e+00 2.1255323144753464e+00 5.1944369978461067e+00 0 0 0
1853 1 4.9131955915700445e+00 1.7013366672481647e+00 6.2342056383003319e+00 0 1 1
3123 1 4.9496320734707773e+00 2.6894192434691240e+00 5.8336928384432936e+00 1 0 0
3577 2 5.7814996486410344e+00 2.0503792822549709e+00 6.1499687614559102e+00 0 0 -1
1676 1 5.6555377776816602e+00 2.1858901287955477e+00 5.2796243759953780e+00 0 0 0
1647 1 5.8941783697264238e+00 1.2660888479413435e+00 5.7303923880875791e+00 0 0 0
3707 2 6.0944219805271302e+00 1.1410583450402556e+00 9.2829540603688283e+00 0 0 -1
1438 1 8.3025371568582287e+00 4.6043234807200948e+00 9.1446510010675155e+00 0 0 -1
1153 1 6.5933330521626834e+00 1.8927276369965433e+00 6.5097945095725125e+00 0 0 0
1578 1 1.0443276923393091e+01 4.2667856297051410e+00 7.7195912720545916e+00 0 0 0
998 1 7.2486968254118045e+00 4.2131185946568390e+00 6.4609472486061126e+00 0 0 0
153 1 1.6742153024686264e+00 4.7389005731456795e+00 5.2544505395211507e+00 0 0 1
2610 1 8.9123579777826123e+00 2.0855587310104879e+00 8.2309734740908489e+00 0 0 0
1688 1 8.3365575633079096e+00 3.8175351835800431e+00 5.2342014591544475e+00 0 0 0
3723 2 5.5344556274460919e+00 4.6286480534720269e+00 8.8637523747431910e+00 0 0 0
2123 1 8.6373692915016047e+00 7.2018382389191860e-01 6.0535112274736678e+00 0 0 0
3718 2 9.1079226007650114e+00 2.1217953887393590e-01 8.9603654449270351e+00 -1 0 -1
3518 2 3.1939876018552495e+00 7.9356399536542593e-03 6.9371900753326274e+00 0 1 0
1115 1 7.7352662958368335e+00 3.3494888461730685e+00 6.0029098642781245e+00 0 0 0
601 1 2.5261961860671889e+00 4.3473549757457608e+00 5.6737568973256316e+00 0 0 0
1093 1 3.5064103368884103e+00 3.8498812338905544e+00 5.8426310573638238e+00 0 0 0
4130 2 7.7193765619646957e+00 4.3865292113708758e+00 7.2743100942419900e+00 0 0 -1
2088 1 4.3830389327450288e+00 3.3906820523989696e+00 5.3901400130002450e+00 0 0 0
127 1 4.2043879549338374e+00 3.1740862644033734e+00 6.4619418035919987e+00 0 0 0
784 1 6.9591858115921585e+00 6.5403740768517415e-01 7.1364973198104078e+00 0 1 0
1085 1 5.6847547555502711e+00 3.3207140822249217e+00 5.3462996494092199e+00 0 0 0
3016 1 5.1775473758305068e+00 3.6469982031842134e+00 6.2006294159606057e+00 1 0 0
1184 1 6.3047914060171077e+00 3.7937642136462641e+00 6.0660059290028965e+00 0 0 0
1030 1 6.6521549433782354e+00 2.7486682221854495e+00 5.7542125077698696e+00 0 0 0
1504 1 7.0950588313582923e+00 3.8269043714511870e+00 5.3467866614494390e+00 0 0 0
2071 1 7.9313475243988343e+00 3.6048967625724067e+00 7.0053749920115305e+00 0 0 0
2115 1 9.5427591035582875e+00 3.3388734783563007e-01 8.0975368779008594e+00 0 0 0
4030 2 8.5233429211936311e+00 3.1813752249739462e+00 6.4544698553934650e+00 0 0 0
1129 1 9.6124776278956574e+00 2.3697377377541518e+00 7.5250801332963562e+00 0 0 0