LAMMPS data file via write_data, version 12 Dec 2018, timestep = 281160

4320 atoms
2 atom types

0.0000000000000000e+00 1.9309999999999999e+01 xlo xhi
0.0000000000000000e+00 1.9309999999999999e+01 ylo yhi
0.0000000000000000e+00 9.6549999999999994e+00 zlo zhi
4.1130299999999984e+00 0.0000000000000000e+00 0.0000000000000000e+00 xy xz yz

Masses

1 1
2 1

Atoms # atomic

4263 2 6.0514010867729038e+00 4.3862998618274087e+00 2.2916311576016488e+00 1 0 0
548 1 5.7361283580934392e+00 2.9833646900636164e+00 4.7324344888215322e+00 0 0 0
1433 1 9.4390045672673608e+00 4.2704893084083135e+00 1.3915736629429920e+00 0 0 0
2159 1 1.0033392783713454e+01 3.2477300636470545e+00 4.0798468862565622e+00 0 0 0
3622 2 1.1464090308646808e+00 1.2391262696694583e+00 8.9501295590584096e-01 0 0 1
1502 1 8.4564549966604066e+00 4.4288110581953255e+00 1.8605815962981544e+00 0 0 0
474 1 8.0927524096578807e-01 6.8147453756560464e-02 3.7126667779378604e+00 0 1 0
3205 1 1.3771974093480632e+00 2.2260234906993386e+00 9.5899946614979670e-01 1 1 0
1979 1 9.4108358668599141e+00 2.0725233806284500e+00 2.3208751689181049e+00 0 0 0
851 1 1.9538068533119619e+00 1.3727475681490882e+00 7.2275470645898898e-01 0 1 0
253 1 2.5251533401937651e+00 6.6300527556983035e-01 1.2513150255774061e+00 0 1 0
1190 1 2.9707698814167554e+00 1.6486855816460013e+00 1.1246687255447718e+00 0 0 1
3918 2 2.6510900043288101e+00 1.6693372991360882e+00 3.4936999102678773e-01 0 1 0
30 1 6.1490593253604544e+00 3.6441709749834494e+00 4.0201443697020087e+00 0 0 0
1127 1 2.9247437858026570e+00 8.7666488994010583e-01 2.9696147509637438e-01 0 0 1
1554 1 3.8882580273615344e+00 1.0737995273152880e+00 8.5623808757343578e-01 0 0 1
4116 2 3.3866160674381405e+00 6.8989686807164197e-01 1.5959966510783477e+00 1 0 -1
95 1 4.2376039906400527e+00 2.8961472600657573e-01 1.6446534990962542e+00 0 0 0
2513 1 9.1363082069932151e+00 4.5724480279427143e-01 1.1406918371923174e+00 0 0 0
4242 2 9.7328481614353635e+00 7.1359813237247682e-01 1.7168313538964464e+00 0 0 1
870 1 4.8029852801537718e+00 1.2627071479071781e+00 1.4053299338453693e+00 0 1 1
1798 1 5.5122461892381569e+00 6.8884975313445551e-01 8.6847162858422888e-01 0 1 0
3688 2 2.7415193801341085e+00 4.0828929120309461e+00 4.6723683373473808e+00 0 1 0
1711 1 8.8515116305372583e+00 2.4166260340534680e+00 5.2775469587448764e-01 0 1 0
1615 1 6.5093121865947321e+00 1.1084386381626530e+00 1.0476745898286799e+00 0 0 1
1678 1 8.9838475584509716e+00 2.8265590044891020e+00 2.9684954878643413e+00 0 0 1
987 1 5.6418938449584974e+00 1.5268357120912923e+00 1.8625427355950180e-01 0 0 0
1050 1 5.8388411355267893e+00 2.5686286754478855e+00 1.0586343138634927e-01 0 0 0
1359 1 7.2933400059201094e+00 9.1621486827884902e-01 1.9929898172245755e-01 0 1 1
3468 2 7.6155049721867192e+00 1.1108772333811661e+00 9.5044263138344476e-01 -1 0 1
21 1 2.0971664193758444e+00 2.2931102162333343e+00 8.6977494850453710e-02 0 0 0
1470 1 8.7727668140054718e+00 2.5998256040874455e+00 1.5148293141677676e+00 0 0 0
2108 1 6.8357018868056878e+00 3.1292854598626767e+00 4.7379774405439870e+00 0 0 0
3137 1 4.6096309632477667e-01 4.4598833001944482e-01 8.0283978513686949e-01 1 0 1
115 1 1.4944288551337035e+00 6.1968575197310749e-01 1.2303989514552660e+00 0 0 0
625 1 1.1778300435873399e+00 1.6986130272592104e+00 9.2847531985814136e-02 0 0 1
254 1 9.4035835334216200e-01 3.2499085676461363e+00 1.2521827228351550e+00 0 1 0
3793 2 6.9468285187954635e+00 1.4993430612494860e-01 2.6067076830333452e-01 0 1 0
1160 1 8.1914176904455243e+00 7.3564000681865227e-01 1.4751012103699737e+00 0 0 0
3599 2 1.4851160149568887e+00 3.8563177310699013e+00 9.1018334905378906e-01 0 0 0
622 1 1.8553700312525674e+00 3.1054560045363830e+00 7.4336935772113422e-01 0 0 1
3750 2 2.2545709193645349e+00 2.1622168585100008e+00 9.7933969341374916e-01 0 0 1
34 1 3.0141252742031934e+00 2.5753657517060393e+00 6.1042775069863431e-01 0 0 0
1065 1 2.5131290173335969e+00 2.7662517525626198e+00 1.4642287388053732e+00 0 0 0
968 1 4.0988526326887511e+00 2.3855285538790603e+00 6.7040666689672046e-01 0 0 1
3708 2 3.7246506412258009e+00 1.9673861833382569e+00 1.3070368404214268e+00 0 0 0
1166 1 3.6704013716087873e+00 3.0637340449614143e+00 1.3738266800715677e+00 0 0 1
3768 2 4.0200397432719939e+00 3.3402692720281570e+00 6.4552207015018381e-01 0 1 0
3676 2 8.3713965103536374e+00 1.1065046494813440e+00 2.2033710161246360e+00 0 1 1
3757 2 5.6416846940124818e+00 1.5655610407921010e+00 1.1280264174429158e+00 0 0 1
1764 1 5.1813904232071000e+00 2.3347525864661636e+00 8.5791444840131237e-01 0 1 0
1617 1 6.2492852104207026e+00 2.2012309798092602e+00 9.6676825783075970e-01 0 0 1
2174 1 4.4879744263749197e+00 2.8162333605460638e-01 5.9135565147327851e-01 0 1 0
1499 1 7.2293152107581484e+00 1.8658391699294845e+00 8.3281400429971908e-01 0 0 1
1544 1 9.0761030682880968e+00 1.4180669767544638e+00 6.1579307451358345e-01 0 0 0
1946 1 1.0041910730519126e+01 3.9797265524988066e+00 2.2035477995967283e+00 0 0 0
1965 1 9.0654404724894526e+00 1.3591380672922979e+00 1.6425191520574192e+00 0 0 0
1145 1 8.5723964684581766e+00 4.2179087739419243e+00 4.2803734772014543e+00 0 0 0
4042 2 3.1341537646121602e+00 8.9539462072059439e-01 4.6249597248704486e+00 0 1 0
1689 1 9.4562715683267555e+00 2.3606304929797388e+00 4.5362158315377936e+00 0 0 0
1441 1 9.9883286349759111e+00 1.8334697635755379e+00 2.3526086809999139e-01 0 0 0
56 1 3.4881823592539747e+00 1.8068606390762405e+00 1.1984260954075553e-01 0 0 0
171 1 1.2642889533405703e+00 4.6948778410264058e+00 1.0735407091243270e+00 0 0 1
1513 1 6.9687878669038810e+00 4.1798172715553576e+00 8.6177590626069955e-01 0 0 0
952 1 8.1706489974564125e+00 1.7277177378677311e+00 1.2100188554366702e+00 0 0 0
656 1 3.1824351076445372e+00 3.7174838812009350e+00 5.1170234525584513e-01 0 0 1
1137 1 9.2018132312009584e+00 4.6135809513798289e+00 2.7972660087941654e+00 0 0 1
717 1 2.3069817268285302e+00 4.2061734463637377e+00 8.6140508754010092e-01 0 0 1
1488 1 6.3307274550921706e+00 4.5298774538513724e+00 8.3638802082385402e-02 0 0 0
668 1 2.8947804338102050e+00 3.7744428686934630e+00 1.6108963209436442e+00 0 0 0
2201 1 8.6352915301095656e+00 3.7957187797189160e+00 1.0801422985313858e+00 0 1 0
1472 1 9.0542060357776482e+00 3.5141834065135322e+00 2.0311253306386003e+00 0 0 0
1019 1 4.7515163529201798e+00 3.2992230117560180e+00 1.0248503257041739e+00 0 0 0
1198 1 3.9610472628898332e+00 4.0371868281078838e+00 1.1661932305955640e+00 0 1 0
3627 2 4.7986307316955576e+00 4.4060800831016769e+00 9.4384898009946860e-01 0 0 1
1870 1 8.3289700863166232e+00 8.2227478070155990e-01 4.2417353966997384e-01 0 1 1
3503 2 7.9483490166480122e+00 1.7647713520607939e+00 3.7309589984775067e+00 -1 0 2
567 1 5.7822898590404215e+00 3.1685467639889215e+00 1.2486848126096108e+00 0 0 0
669 1 5.4832443205835100e+00 4.1162158862973870e+00 1.4790779115693855e+00 0 0 1
3865 2 6.0806501490287790e+00 4.0565635960664688e+00 9.0429267171903138e-01 0 0 0
1051 1 5.4700543519676392e+00 3.7843647614514242e+00 3.2383101134465381e-01 0 0 0
700 1 7.5220146165774160e-01 3.5282253044524530e+00 4.5352378867202257e+00 0 0 0
3588 2 2.3595385437571572e+00 3.8916197767062024e+00 3.6979811872590029e+00 0 0 0
3771 2 9.3190769852980218e+00 2.9003639011227755e+00 3.8483029669739657e+00 0 1 -1
503 1 7.9712081666959440e+00 2.8245698381194786e+00 9.5034079147422346e-01 0 0 0
1506 1 6.9020487529028696e+00 3.0600015809280903e+00 1.1281424181599768e+00 0 0 0
1564 1 7.7969428569582560e+00 3.6608067244423044e+00 3.9616792707444365e-01 0 0 1
1572 1 7.6743924836979787e+00 3.7123403187725246e+00 1.5508805292408121e+00 0 0 1
1671 1 9.6189467325868865e+00 3.2622847001536974e+00 1.0919135284809902e+00 0 0 1
137 1 1.3169319827644226e+00 6.5615598036648748e-01 1.5328676658593995e-01 0 0 1
2006 1 1.0305431237849414e+01 3.8725447594002391e+00 6.1997383700262954e-01 0 0 0
94 1 1.5934899225375316e+00 4.7182541686254398e-01 3.2853988536558898e+00 0 0 0
2145 1 9.4946514932759012e+00 2.0114960662148751e+00 3.4360843851972986e+00 0 0 0
2468 1 9.7298007496437577e+00 2.1721982775379405e+00 1.1953132699397881e+00 0 0 0
520 1 1.0757682955060579e+00 1.5585636561266762e+00 1.7592215112365968e+00 0 0 0
3610 2 1.0016077835865411e+00 4.6129973416045580e+00 2.6421029647183731e+00 0 0 0
715 1 1.0130258620480537e+00 1.1904668937513470e+00 2.7672613948186942e+00 0 0 0
3482 2 8.4144064644250989e+00 4.3146548156988116e+00 1.1649088115909447e-02 0 0 1
1000 1 2.1060558418735864e+00 1.7307007873616889e+00 1.7198245302066113e+00 0 0 0
4214 2 1.5159257999552542e+00 2.0160282889873447e+00 2.3795678668665654e+00 1 0 0
817 1 1.8363814747703853e+00 7.8387559833776088e-01 2.2631217907105334e+00 0 1 0
159 1 2.8848885968267930e+00 1.1511140207587074e+00 2.1175728072602786e+00 0 0 0
992 1 1.9935839651651674e+00 1.4687479118681606e+00 3.0217266596961356e+00 0 0 0
966 1 2.6190522375135243e+00 4.6778330018862851e-01 2.9664017584038165e+00 0 0 0
1134 1 3.1317710357762141e+00 1.6299769572968703e+00 2.9778523885705024e+00 0 0 1
1040 1 3.9004276491246905e+00 1.3306399553973491e+00 1.9238992729475688e+00 0 0 0
1358 1 3.5952750295972389e+00 4.7647315407325919e-01 2.5150556913435733e+00 0 1 1
1621 1 7.5402448391571903e+00 4.0417143786033956e+00 3.2993700419199885e+00 0 0 0
3878 2 4.4169377988808627e+00 8.2098949039304936e-01 2.4172513182865862e+00 0 0 1
631 1 4.1727697036975009e+00 1.2600743323609189e+00 3.1224700763407029e+00 0 0 0
3756 2 5.9455069392344226e+00 3.9507330689720399e-01 1.6260309230137713e+00 0 0 1
1357 1 5.1135436849609626e+00 3.9315536785214894e-01 2.1346930725093602e+00 0 1 1
575 1 5.1401505781213332e+00 8.8903909163928840e-01 3.1399200060573178e+00 0 0 0
722 1 5.7510406037733324e+00 1.1821448100135752e+00 1.8870722917059122e+00 0 1 0
1147 1 6.1378638097897520e+00 6.3851715147605625e-01 2.6782768137324693e+00 0 0 1
1351 1 6.7780385816884623e+00 4.9419066846581217e-01 1.8848928191799721e+00 0 1 0
3775 2 6.9381864115005571e+00 2.3382894512346036e-01 2.6988434476103915e+00 0 1 0
767 1 7.3355869469706017e+00 3.0715183381192945e-01 1.0279070110347761e+00 0 1 0
1457 1 9.2767193160542156e+00 3.8167604045852417e+00 3.6224643529243186e+00 0 0 0
955 1 6.8477418530745275e+00 4.5041046068370489e+00 3.8008159874962484e+00 0 0 0
3492 2 1.1285773050272516e+00 2.7203845950902805e-01 2.5250567929948660e+00 0 0 0
2996 1 3.1949176189365369e+00 4.7742605490890009e+00 1.2513654621697416e+00 1 0 0
4063 2 9.4029133371922651e+00 1.5295937595231585e-01 2.8157826385977822e+00 0 1 1
3847 2 8.6479627782847199e+00 4.5562909580693178e+00 3.4810736433272407e+00 0 0 0
431 1 6.7432840490671098e-01 2.1573087527982371e+00 2.6504092348653305e+00 0 1 1
558 1 1.5431293748997463e+00 2.7545488404872072e+00 1.9448930431348266e+00 0 0 0
1090 1 4.6390518223735784e+00 4.6307988267198813e-01 4.7885568056319059e+00 0 0 0
83 1 1.4526669273461206e+00 3.5424896134285877e+00 2.6888402499816242e+00 0 0 0
166 1 1.5560024144466191e+00 2.5678068467821227e+00 3.0889614077293519e+00 0 0 0
1376 1 2.3744037717512789e+00 2.4624872934516029e+00 2.4731078847667534e+00 0 1 0
3606 2 2.2857074755904998e+00 3.3071684658936866e+00 2.2215282948666712e+00 0 0 0
2941 1 3.2064754528425259e+00 3.2359702864596356e+00 2.4306968595494061e+00 1 0 0
3608 2 3.0784979597184314e+00 2.5013649973193712e+00 2.8670197449580934e+00 0 0 0
3128 1 2.4182201580562745e+00 3.2593473100733856e+00 3.1222345477858320e+00 1 0 0
555 1 3.2348021139367491e+00 2.2194649642523228e+00 1.9813106724810539e+00 0 0 0
505 1 4.4012372080930025e+00 2.3280442312513836e+00 1.6832361372118081e+00 0 0 0
663 1 3.9521541685456283e+00 2.2460438224066559e+00 2.7481662896009151e+00 0 0 0
3686 2 3.9628251867398285e+00 2.9215691104913080e+00 2.1865082797624731e+00 0 1 0
1446 1 4.9268587259684429e+00 2.7828758569215712e+00 2.5704250978041503e+00 0 0 0
568 1 4.8852840160450439e+00 1.6509742264575706e+00 2.3818857474197599e+00 0 0 0
3703 2 5.0792922991887997e+00 2.9500260484029499e+00 1.7482783906111727e+00 0 0 0
3533 2 6.2170465753045985e+00 1.4829837231720837e+00 2.6510089537324149e+00 0 1 0
1462 1 5.5281427191131352e+00 2.2289311360410151e+00 1.7947111669867524e+00 0 0 0
1511 1 5.7132034546959733e+00 2.1733003287177373e+00 2.8768186478710791e+00 0 0 0
1561 1 6.3794523944090145e+00 2.7998059888200864e+00 2.0513564927871242e+00 0 0 0
2197 1 6.9874862891280332e+00 1.1755520367774936e+00 2.8001471511129767e+00 0 1 0
566 1 6.5710589346467740e+00 1.8208784064668084e+00 1.9413697783135002e+00 0 0 0
1437 1 7.3556149982675700e+00 2.4408630765920574e+00 1.8272386476827651e+00 0 0 0
2101 1 7.5143930483975501e+00 1.3844182720842992e+00 1.8503108684820764e+00 0 0 1
3946 2 7.4617701451426344e+00 1.9319185339485907e+00 2.5132203893824991e+00 0 1 0
1721 1 6.7493223968675808e+00 2.1994901172794781e+00 2.8920144940179338e+00 0 1 0
2421 1 7.8193514564884312e+00 2.4306721904800157e+00 3.1120351610285626e+00 0 0 0
2689 1 9.0159375403972941e+00 1.2330509638709466e+00 2.8062679451686998e+00 0 0 0
3590 2 6.1173660749827263e+00 4.5109339925669349e+00 4.1187517177141508e+00 0 0 -1
1191 1 5.2302137388406864e+00 4.5362873975038749e+00 3.8698266400601700e+00 0 0 0
1696 1 7.6650105695283957e+00 3.8675029619519394e+00 4.3485681711134587e+00 0 0 0
2112 1 1.0592365666578027e+01 4.5641682325884387e+00 1.4796179446885185e+00 0 0 0
2037 1 6.8805820227127388e+00 4.4699264654041819e+00 2.5734530818737174e+00 0 0 0
615 1 1.8626986710966322e+00 3.7965321230037170e+00 1.6872922028294834e+00 0 0 1
1001 1 7.2312777902035972e+00 2.7269393952125567e+00 1.1916599462730283e-01 0 0 0
1117 1 4.3359950460146575e+00 3.9407185602057369e+00 2.3029335306125698e-01 0 0 1
2141 1 7.9726401459608418e+00 4.6186632858971466e+00 9.0052965154071440e-01 0 0 1
242 1 3.3847325168389597e+00 5.5419808505674725e-02 9.7961033249170870e-01 0 0 1
4296 2 7.3832569448591867e+00 4.6834096628278443e+00 4.5749933760765149e+00 1 0 0
1039 1 3.5941184965735182e+00 4.1970205056010439e+00 2.2490143363921717e+00 0 0 0
4238 2 2.4351646684230528e+00 4.4901969949423988e+00 1.6888146049613884e+00 1 0 0
3619 2 3.2654851576751240e+00 3.8356729793012772e+00 3.0223878289560115e+00 0 0 1
586 1 2.4729399419398752e+00 4.1755872916271590e+00 2.6274342443354963e+00 0 0 0
2132 1 9.5028710159551970e+00 6.3556662589376156e-01 3.6255329915989543e+00 0 0 0
1682 1 7.1121928534535606e+00 3.0603326928159404e+00 3.5945446952285187e+00 0 0 0
1440 1 4.1418831585878735e+00 3.4502630643421024e+00 2.9105179209086107e+00 0 0 0
664 1 4.5203486094461010e+00 3.6300366719893078e+00 1.9748621735938667e+00 0 0 0
550 1 4.2976055071548318e+00 4.4910269491841284e+00 2.9668000317742815e+00 0 0 0
655 1 5.2037195972202808e+00 4.4062134291926327e+00 2.5266355266306930e+00 0 0 1
994 1 5.2124707472792240e+00 3.6428050650046715e+00 3.1708689142794859e+00 0 0 0
1428 1 6.4979771374212891e+00 3.8620555182690359e+00 1.7074964384332476e+00 0 0 0
1613 1 9.7069477505963100e+00 4.1819501437275166e+00 4.6163825987508238e+00 0 0 0
534 1 6.1498546303835919e+00 3.1818253431326076e+00 3.0141834764215663e+00 0 0 0
1271 1 5.6110263335788666e+00 3.4499485658733375e+00 2.2048753672701591e+00 0 1 0
1474 1 1.0226196997254913e+01 4.3612660402651153e+00 3.1475628102438380e+00 0 0 0
3838 2 6.7238455884792732e+00 3.7961082976728262e+00 3.2528989701655853e+00 0 0 0
3127 1 3.1708229740418421e+00 3.9700047341847924e+00 3.8670978216920897e+00 1 0 0
1072 1 8.0992309007103742e+00 3.0732762326172089e+00 2.2210733325128849e+00 0 0 0
1535 1 7.1090252721346667e+00 3.3796499211456767e+00 2.5328606534392799e+00 0 0 0
3964 2 7.7778660854112109e+00 3.2788640711383783e+00 3.0253324627716300e+00 0 1 0
1858 1 7.7768300657526952e+00 1.4101362830806090e+00 4.5969591487103321e+00 0 1 0
1103 1 8.7595796755815005e+00 2.4259361874239496e-01 4.3444473964176149e+00 0 0 0
2076 1 7.9321593606916192e+00 1.3791815596339028e+00 2.9084359486352267e+00 0 0 1
3040 1 3.6144941484776663e+00 4.6492230660847778e+00 2.1606661094563859e-01 1 0 0
570 1 2.8354229163630079e-01 3.8961073649213979e-01 2.9379580854801111e+00 0 0 0
1607 1 9.1646588775321227e+00 4.6134780556572847e+00 2.9053893463176861e-01 0 0 1
599 1 2.9104625355384304e+00 4.0008656972665330e-01 3.9730380835541177e+00 0 0 0
3121 1 8.9163555070652922e+00 3.2697418114288812e+00 4.5424590521828287e+00 0 0 0
194 1 6.2270408866731075e-01 9.4057138632206572e-01 4.5042640634864108e+00 0 0 0
3855 2 6.9596755005862976e-01 1.0014169334874048e+00 3.5949210894293335e+00 0 0 0
3192 1 8.2152725225663303e-01 1.9545064843943447e+00 3.8118202759232194e+00 1 0 0
1538 1 8.5719941977041270e+00 2.9001261869064471e-01 3.1621465130573818e+00 0 0 0
1880 1 8.4818990232875748e+00 3.8609892450106527e+00 2.8758535233786660e+00 0 0 0
1584 1 1.5298848355704981e+00 1.2455736020909123e+00 3.9634278963531919e+00 0 0 0
3464 2 2.2797347878019294e+00 9.6281384053865215e-01 3.5918159433714361e+00 0 0 -1
652 1 2.4981598662612803e+00 1.5324237090190744e+00 4.2529687839748398e+00 0 0 0
1622 1 8.2619586518406436e+00 3.2770241774948947e+00 3.7090007128203477e+00 0 0 0
991 1 7.7244839435388339e+00 5.1688943806803889e-01 2.4757049964954154e+00 0 0 0
4264 2 3.3779682359256911e+00 7.4240454217263341e-01 3.2567170176316695e+00 1 0 1
1054 1 4.0574520662250606e+00 4.5282071293754139e-01 3.8832050417375297e+00 0 0 0
481 1 3.4971167995478409e+00 1.3387335412078383e+00 3.9091642230929198e+00 0 0 0
235 1 4.8319643103661774e+00 1.1855170442750003e+00 4.1162545304835279e+00 0 0 0
887 1 1.7107305558573853e+00 3.1718771757057529e-01 4.2781403158717675e+00 0 1 0
3856 2 5.8156240719061252e+00 4.5997916065749189e-01 3.5352432458499914e+00 0 0 0
2360 1 5.7321635249268779e+00 7.7793965022857781e-01 4.3040184304186049e+00 0 1 0
2064 1 9.3096392762032409e-01 2.9206611429681364e+00 2.5292892995133875e-01 1 0 1
3587 2 7.6279367036220860e+00 4.1694615290914507e+00 2.3703621150316994e+00 0 0 0
1950 1 7.7552901673781127e+00 7.5337331925019435e-01 3.7165062702899636e+00 0 0 0
4029 2 7.1144341132484286e+00 7.9852772597204336e-01 4.3005658172459880e+00 0 1 0
580 1 6.7054780712509325e+00 4.7956564607941665e-01 3.5647704258098227e+00 0 0 0
50 1 4.5851379288833751e+00 4.6210645233894283e+00 1.7423287905160758e+00 0 0 0
4129 2 9.4049558254093171e+00 3.7597050638838914e+00 2.7818233004917952e+00 1 0 1
1425 1 8.5655490507677658e+00 2.3022129832282134e+00 3.8740995425043723e+00 0 1 0
17 1 5.9063302610583457e-01 5.9015609330833774e-01 1.8803778502082396e+00 0 0 0
1242 1 4.6358676110454784e+00 1.4471714552895090e+00 2.5635987555322259e-01 0 1 0
906 1 8.3504060806873088e+00 2.0211679687953770e+00 2.2262569205425122e+00 0 1 0
3764 2 7.8046957312190788e+00 6.5849976555086673e-04 1.7831412732953555e+00 0 1 -1
3772 2 2.1344839807296001e+00 3.5883132488280672e-01 4.3900496380412035e-01 0 1 1
1098 1 8.0587963944533616e+00 1.7554672836617549e+00 8.5604689761083694e-02 0 0 1
4228 2 1.9178599960987148e+00 8.2790990285555120e-03 1.7586737167114235e+00 1 0 0
3480 2 9.5863753670577567e-01 2.7542682199530888e+00 4.0649905509609763e+00 0 0 0
3028 1 9.0897927773957210e-01 4.1481446719627293e+00 1.8580860376061012e+00 1 0 0
288 1 1.5669039684758532e+00 3.3556815648378868e+00 3.6926575145664886e+00 0 1 0
4208 2 1.7218004874703143e+00 3.1797515548772433e+00 4.6164496776990065e+00 1 0 0
543 1 1.6974780095192576e+00 2.2907249362639392e+00 4.1768763964271223e+00 0 0 0
1165 1 2.5188279572600774e+00 2.3310107630513732e+00 3.5320659575994968e+00 0 0 0
802 1 2.5816053019783385e+00 3.1625404648573205e+00 4.2197152915255431e+00 0 1 0
572 1 3.3795474918721431e+00 3.0041247263737070e+00 3.5273286005171172e+00 0 0 0
1167 1 3.3548393203026423e+00 2.3001738185966625e+00 4.3073788753785820e+00 0 0 0
1022 1 3.2411695830789413e+00 4.7295883372842873e+00 3.0722257885429354e+00 0 0 -1
3719 2 3.4724271974467968e+00 3.2426192804421032e+00 4.3759131748302238e+00 0 0 -1
4119 2 3.9107790599921231e+00 2.0542006838014535e+00 3.6250003255347081e+00 0 0 0
1007 1 4.3233935086605033e+00 2.0486274348740139e+00 4.4547017676466352e+00 0 0 0
2164 1 4.4320729850191070e+00 2.8804999805125933e+00 3.7443411010250438e+00 0 0 1
3884 2 4.8937020878232360e+00 2.7129484232661807e+00 4.4513294682284643e+00 0 0 1
1062 1 4.8310775537117072e+00 2.0070973484691343e+00 3.4778600515244813e+00 0 0 0
1194 1 6.0981602122425977e+00 1.3829063200220655e+00 3.5362318300829458e+00 0 1 0
814 1 5.5994615517507729e+00 1.9256086199187781e+00 4.3424059792048579e+00 0 1 0
1081 1 5.4720282374161631e+00 2.8063909264397835e+00 3.7237247984638411e+00 0 0 1
860 1 6.4711886835957548e+00 2.3907218329394317e+00 4.0270593187341888e+00 0 1 1
3460 2 8.6243130002376471e+00 1.9947596539197987e+00 3.0441238508540467e+00 -1 0 0
2250 1 8.7225987181802669e+00 1.2427957859203569e+00 3.7960186736635704e+00 0 1 0
2098 1 6.3927711188061718e+00 3.3801637763408729e+00 2.9013939338623024e-01 0 0 1
1573 1 7.0735647442726393e+00 1.6286429077947346e+00 3.7562053760138112e+00 0 0 0
537 1 7.5554395740838229e+00 2.4204080899437939e+00 4.2592907558378279e+00 0 0 0
508 1 6.0284598999972445e+00 4.3184885372202739e+00 3.1634340582934590e+00 0 0 0
964 1 9.9296392030511811e+00 2.9673127153574206e+00 2.0014954685149453e+00 0 0 0
2063 1 1.0031869740086201e+01 3.2294642551674220e+00 3.0428221629033123e+00 0 0 0
124 1 5.0418858851364359e+00 3.6196223350003369e+00 4.3300104380600510e+00 0 0 0
177 1 1.5915741171599198e+00 4.4039637994029457e+00 3.3015582683250408e+00 0 0 0
1505 1 4.2255043331150279e+00 3.8555855033256186e+00 3.8081990051567489e+00 0 0 0
232 1 1.8488201352768963e+00 4.0258260184224506e+00 4.3979400427131630e+00 0 0 0
513 1 4.5161712217062711e+00 4.5418205258265880e+00 4.7201108550418596e+00 0 0 0
4148 2 1.0807273099370425e+00 4.2016254153885066e+00 4.0241101668298835e+00 1 0 0
559 1 2.4814458966562114e+00 4.7949792741199664e+00 3.9889555897239397e+00 0 0 0
1519 1 8.9381396150292574e+00 4.5844752555758406e-01 2.1380896845927881e+00 0 0 0
386 1 5.0045050189857028e+00 1.7254269731106264e-01 3.8515251219802153e+00 0 1 0
2854 1 9.8171271534446998e+00 1.3988431861660020e+00 4.5064851530559178e+00 0 1 0
1071 1 6.5798174660257756e+00 1.4116122685938572e+00 4.5688627206647876e+00 0 0 -1
1491 1 3.6132630604983151e+00 9.8959796349867055e-02 4.7652094308565989e+00 0 0 -1
57 1 5.5880091305575108e-01 2.0405963595297592e+00 4.7970970359753489e+00 0 0 0
636 1 1.6932970649757584e+00 4.8032510755758153e+00 2.1737154725190839e+00 0 0 1
1029 1 6.2455594685271425e+00 6.3667741727724969e-01 7.4875798559339513e-02 0 0 0
1122 1 9.6175657411537188e+00 6.0397993118325255e-01 1.4999674821503953e-01 0 0 0
1906 1 6.5877106699823820e+00 1.7530869155786966e-01 4.6854676488604596e+00 0 1 0
971 1 9.7236457643533054e+00 2.8074323828475172e+00 6.4673818596296992e-02 0 0 0
2084 1 8.9226827607171018e+00 3.5247731242679055e+00 1.5587430694376694e-01 0 0 1
581 1 1.6266674657253475e+00 3.9240364312268881e+00 1.6757754850446484e-02 0 0 0
691 1 3.8866597012009052e+00 4.8145129090037821e+00 3.8595510648021372e+00 0 0 0
628 1 6.6503707683602222e+00 4.2873967168868390e+00 4.7851572729026453e+00 0 0 0
1783 1 4.4974135422825654e+00 1.8763590602624712e-03 3.0022936679064056e+00 0 1 0
2100 1 9.8453521320498023e+00 3.5162568163195886e+00 6.0454122488107407e+00 0 0 0
3670 2 2.4290034552811051e+00 2.3432505883369953e-01 7.3981215126945266e+00 0 1 0
617 1 6.0467494656526100e+00 4.4180916393082166e+00 7.9818025746470180e+00 0 0 0
1171 1 9.0074675634160144e+00 2.8502826342712746e+00 5.6862104057233545e+00 0 0 0
1069 1 2.9566773112402664e+00 1.7262394011320736e+00 5.2072959047704570e+00 0 0 0
4078 2 8.9438997043102830e+00 9.3385200348945097e-01 5.6645834612214063e+00 0 1 0
3545 2 8.5573046408911169e-01 1.5541068872463157e+00 5.5119802601645764e+00 0 1 0
1486 1 9.2613589849927571e+00 4.5146582121918799e+00 7.3307006009926221e+00 0 0 -1
4220 2 8.4121007728857631e+00 1.2657931033845566e+00 7.3472081531874345e+00 0 0 -1
3728 2 9.7864943544690881e+00 3.0040302100189265e+00 7.8473673957573240e+00 0 0 0
1628 1 8.5438520646856304e+00 4.2010957811982417e+00 8.0012521845202915e+00 0 0 0
706 1 1.5211496728872000e+00 1.0675936501347569e+00 5.8817258224912523e+00 0 0 0
249 1 5.0776859000286456e-01 2.6106504147786758e-04 9.4961823477961289e+00 0 1 -1
3513 2 2.2100546667674186e+00 1.5307247266852988e+00 5.6023256148706677e+00 0 0 0
842 1 2.2241423739477479e+00 8.4057286261704167e-01 4.9837011531392648e+00 0 1 0
913 1 2.7245729997016519e+00 1.3541155574270960e+00 6.2698167433447880e+00 0 1 0
517 1 5.1549144724583114e+00 4.5442262655630739e+00 9.2487212931762333e+00 0 0 0
1904 1 8.1278496826108135e+00 1.4880688598543481e+00 5.6375262092325773e+00 0 1 0
3611 2 4.0574123398128084e+00 6.3060978474706209e-01 5.4442887685928198e+00 0 0 1
3752 2 3.5574560783479914e+00 1.4400517007608931e+00 5.7846885755916926e+00 0 0 0
526 1 3.1662484011177821e+00 6.6258548311424081e-01 5.5235291324376146e+00 0 0 -1
1080 1 3.9379219592366406e+00 8.7998023143487070e-01 6.3303847143628236e+00 0 0 0
1514 1 6.5267803654236820e+00 2.7938460427285174e+00 8.9516302108642112e+00 0 0 -1
1128 1 4.6806500910214197e+00 1.3508821755696361e+00 5.5759425022276572e+00 0 0 1
1557 1 9.4892344260243373e+00 3.8495869266871652e+00 8.1539586290902495e+00 0 0 0
2053 1 8.9447094372632652e+00 1.9432778552220906e+00 6.2287525430720461e+00 0 0 0
1683 1 5.6142848360921418e+00 7.4723624663687016e-01 6.2863268920830890e+00 0 0 0
1199 1 5.6692122315900830e+00 1.2884485755433066e+00 5.2863169722771008e+00 0 1 0
3749 2 8.3097898161748684e+00 3.1491819460110198e+00 8.3874714922358962e+00 0 0 0
4122 2 6.3585756382357967e+00 8.1505410764402175e-01 5.2002066041406634e+00 0 0 0
1349 1 6.4797931495747694e+00 3.2177492152241782e-01 5.8477048675398358e+00 0 1 0
889 1 7.1884282700572157e+00 8.4206556917275566e-01 5.1908708558544845e+00 0 1 0
1021 1 8.2413812665710857e+00 2.7992176990226763e+00 9.3972535123139220e+00 0 0 0
1654 1 7.3776813584453551e+00 1.0256441360396267e+00 6.3331732070546378e+00 0 0 0
3565 2 8.2459434972806331e+00 3.7905592079033195e+00 5.0062222688985267e+00 0 0 0
3814 2 1.1647586372469760e+00 3.0490810849108052e-01 6.2395898664850469e+00 0 1 0
2069 1 1.0195296707006763e+01 3.1207457393150237e+00 8.6130513275921796e+00 0 0 0
2494 1 1.5012256022885875e+00 1.6608313447645739e+00 4.9532361585158231e+00 1 0 -1
3867 2 8.9690243490099899e+00 4.6991744120637708e+00 4.8708433919186165e+00 0 0 0
1566 1 6.7577182959620261e+00 3.5715004681919122e+00 8.2172361748844338e+00 0 0 0
2619 1 1.0195374797467796e+01 4.3110050895327934e+00 6.8322106114418544e+00 0 0 0
1836 1 6.3249940937804379e+00 1.5549384489296647e-01 8.0999283648921487e+00 0 1 0
695 1 1.6026306409128825e+00 2.1175553269372061e+00 5.9623123958348661e+00 0 0 0
602 1 1.2268243990496015e+00 2.6957694056611112e+00 5.1756684750016095e+00 0 0 0
2586 1 1.2325897274844952e+00 3.0502500992334771e+00 6.2323083306256635e+00 1 0 0
4302 2 1.9816301137246226e+00 2.9677852591558893e+00 5.8745627300671739e+00 1 1 0
1180 1 2.7352492914961877e+00 2.3721358947200635e+00 5.9457195481676441e+00 0 0 0
1482 1 3.2772328542122051e+00 2.8789842217920163e+00 5.1726776473454965e+00 0 0 0
370 1 2.4968869444205897e+00 4.8401846182079322e-01 8.1936080504851869e+00 0 1 0
675 1 2.7257672588913922e+00 3.4057353985873822e+00 6.3379950401218119e+00 0 0 0
676 1 2.3430862066323823e+00 3.5173407579406430e+00 5.2609768414868654e+00 0 0 0
1114 1 3.9036197153301631e+00 2.1347279652818139e+00 5.4246322359099022e+00 0 0 0
1187 1 4.5116051749710468e+00 2.1295064770429457e+00 6.2451554810674974e+00 0 0 0
659 1 3.6691067323138045e+00 2.9875927388180270e+00 6.1220356636874458e+00 0 0 0
3713 2 4.4259194378792532e+00 2.8246800339848988e+00 5.6954035065898418e+00 0 0 0
698 1 3.5092210439039073e+00 1.9726729550350994e+00 6.4860643520573973e+00 0 0 0
1177 1 5.0597270462822319e+00 2.3190934839619670e+00 5.2591783080949277e+00 0 0 0
1853 1 5.4974392069514479e+00 1.8136423379626221e+00 6.1352840430788920e+00 0 1 1
3123 1 5.6578221827874238e+00 2.8466221094074693e+00 5.9860379799655270e+00 1 0 0
3577 2 6.4224423687120051e+00 2.4491927920838235e+00 6.0919465151548478e+00 0 0 -1
1676 1 6.2259140938275799e+00 2.2403070767192239e+00 5.3170564559746714e+00 0 0 0
1647 1 6.4914927947688357e+00 1.4744590011278595e+00 5.9819795976706152e+00 0 0 0
3707 2 6.8948896825963608e+00 1.2035406415253362e+00 9.0833555651784437e+00 0 0 -1
592 1 3.5698062713449896e-01 6.0999969437607759e-01 8.7389352093953736e+00 0 0 -1
1153 1 7.0982523102357531e+00 2.3105596274704912e+00 6.6128487289909774e+00 0 0 0
4284 2 9.1683724128444588e+00 2.8192559865035505e-01 6.9676305873726632e+00 0 1 0
998 1 7.9303060882244329e+00 4.3702704379267416e+00 6.5036173932719610e+00 0 0 0
1139 1 7.9305566135135486e+00 4.7774665604608986e+00 8.6222024584809311e+00 0 0 0
2610 1 9.5539955533144951e+00 2.3244688644062750e+00 8.2319985814320660e+00 0 0 0
1688 1 9.0305523686482037e+00 3.8625115113539898e+00 5.3653578890690010e+00 0 0 0
1079 1 1.3048965942337005e+00 3.7067838293666022e+00 5.3500022479691252e+00 0 0 0
1407 1 9.8716220819959712e+00 1.2997142421534549e+00 9.0003012137570746e+00 0 1 0
1133 1 1.9545366047152490e+00 4.0280196464357596e+00 6.1044051120801122e+00 0 0 0
1581 1 1.0423389584440288e+01 3.6496029730100252e+00 7.6233843445504874e+00 0 0 0
1115 1 8.1917873435859772e+00 3.4878489843139171e+00 6.0169239716807272e+00 0 0 0
601 1 3.0600218158484513e+00 4.2569873618185969e+00 5.8242080566016439e+00 0 0 0
1093 1 4.1282809881454030e+00 3.9338677816718781e+00 5.9514550297079598e+00 0 0 0
1814 1 9.3149234280727615e+00 3.4488185416098022e-01 8.5403236809685215e+00 0 1 0
2088 1 5.0221959145703501e+00 3.4349471084375089e+00 5.4657585440408472e+00 0 0 0
127 1 4.7182646391720890e+00 3.2146657609630060e+00 6.4586537187102708e+00 0 0 0
784 1 7.7362030601353418e+00 7.4783970321935378e-01 7.2651207286193182e+00 0 1 0
1085 1 6.2811686819661050e+00 3.5601027067653104e+00 5.4605451602033321e+00 0 0 0
3016 1 5.7671393096422330e+00 3.9181664342459661e+00 6.3712791787015375e+00 1 0 0
1184 1 6.9274699454836792e+00 4.0823016918137585e+00 6.2514777107503949e+00 0 0 0
1030 1 7.0887438462879047e+00 2.9529568985556223e+00 5.8204369663322799e+00 0 0 0
1504 1 7.4218381807889395e+00 3.9169253165300226e+00 5.3539613621436972e+00 0 0 0