LAMMPS data file via write_data, version 12 Dec 2018, timestep = 260040

4320 atoms
2 atom types

0.0000000000000000e+00 1.9309999999999999e+01 xlo xhi
0.0000000000000000e+00 1.9309999999999999e+01 ylo yhi
0.0000000000000000e+00 9.6549999999999994e+00 zlo zhi
3.8040699999999994e+00 0.0000000000000000e+00 0.0000000000000000e+00 xy xz yz

Masses

1 1
2 1

Atoms # atomic

4263 2 6.2914008963761994e+00 4.4391964033325406e+00 2.2021434297516027e+00 1 0 0
3847 2 8.7620732226655864e+00 4.6401608225973687e+00 3.3444462778322981e+00 0 0 0
1433 1 9.4806642033024442e+00 4.3429605406011964e+00 1.2663473158912057e+00 0 0 0
577 1 2.8888505980958952e+00 3.5953893548000333e-02 2.1180521642274943e+00 0 0 0
3622 2 1.2435659761682789e+00 1.3190930840754924e+00 7.8820025702554786e-01 0 0 1
1502 1 8.5830263226184833e+00 4.5522347505704559e+00 1.8274075566961625e+00 0 0 0
2054 1 9.8050872948053520e+00 4.1828951785814104e+00 3.5852400394856411e-02 0 0 0
3205 1 1.3927009370162211e+00 2.1137282510605750e+00 9.2359783106972992e-01 1 1 0
1979 1 9.4895922262862289e+00 2.3433848973463514e+00 2.2980017135658990e+00 0 0 0
851 1 2.1479923152495100e+00 1.2725413416931906e+00 5.3049642832624311e-01 0 1 0
253 1 2.6475114925616601e+00 6.5237798948503922e-01 1.3380108889072111e+00 0 1 0
1190 1 3.1454667198863704e+00 1.7358883295220435e+00 1.0957642575687800e+00 0 0 1
3918 2 2.7767458581002202e+00 1.6592526059327013e+00 2.2187496414418292e-01 0 1 0
30 1 6.2884287847054159e+00 3.8166711963465176e+00 4.0436223887509088e+00 0 0 0
1127 1 3.1648626914242528e+00 8.8743352836531753e-01 3.8260717550775658e-01 0 0 1
1554 1 3.9833814392548170e+00 1.0547838984656193e+00 9.7003569504183962e-01 0 0 1
4116 2 3.5919907671060680e+00 7.0365405142468085e-01 1.7079618226096385e+00 1 0 -1
95 1 4.5431171181141048e+00 4.8927090889788244e-01 1.6925051282130676e+00 0 0 0
2513 1 9.3416080088750473e+00 4.9344078380269391e-01 9.6983000688411425e-01 0 0 0
57 1 7.2072939299415184e-01 1.9292258905451649e+00 4.7112545044973047e+00 0 0 0
870 1 5.0039652169633904e+00 1.5063624406359533e+00 1.3952489423301069e+00 0 1 1
1798 1 5.5338422251645421e+00 7.9596477616952699e-01 9.1025254433211378e-01 0 1 0
1458 1 6.4398192405164947e+00 4.9331328159459550e-02 1.0708147260787029e+00 0 0 0
1711 1 8.9597397291534495e+00 2.5614204013804511e+00 4.7136504424008580e-01 0 1 0
1615 1 6.5936264691974174e+00 1.2376426146906867e+00 1.0795258179770084e+00 0 0 1
1678 1 8.9963671436561441e+00 3.0037332756583592e+00 2.9051290315185381e+00 0 0 1
987 1 5.8517299257557971e+00 1.5705200570021955e+00 2.3389566384440824e-01 0 0 0
1526 1 4.3603025860033764e+00 3.0333758479787494e+00 4.8057394970430174e+00 0 0 0
1359 1 7.3486619395539741e+00 1.0385928902277859e+00 3.4027454913128202e-01 0 1 1
3468 2 7.8213133213811483e+00 1.1382407573398547e+00 1.0277207742933971e+00 -1 0 1
1029 1 6.3342807798383820e+00 6.1362876925968035e-01 1.2922223235543281e-01 0 0 0
1470 1 8.9148325866316593e+00 2.7533109013672052e+00 1.5148536551873124e+00 0 0 0
1117 1 4.4122998807289555e+00 3.8826870298446385e+00 1.4266598645824241e-01 0 0 1
3137 1 5.3015525920539952e-01 2.6018362366321096e-01 8.8106662750730891e-01 1 0 1
115 1 1.5318935254356645e+00 6.3143286146628730e-01 1.2705773997045002e+00 0 0 0
10 1 3.7780908314478168e-01 9.9088844771160012e-01 6.5182617591306016e-02 0 0 1
254 1 1.1140440586958222e+00 3.2041556155845012e+00 1.2752869325012139e+00 0 1 0
3080 1 7.4805147258580695e-01 2.9638610412987845e+00 3.2737378255010112e+00 1 0 0
1160 1 8.4427065616280181e+00 7.9329144035330135e-01 1.5350403365100946e+00 0 0 0
3599 2 1.5817280841248187e+00 3.7122143226320841e+00 7.3068079615185533e-01 0 0 0
622 1 2.1641003719483409e+00 3.0266018164802402e+00 7.4632182149852677e-01 0 0 1
3750 2 2.3325699370873236e+00 2.1692213531515554e+00 8.5409712559560402e-01 0 0 1
34 1 3.1114663796573785e+00 2.5210743869907466e+00 4.6157465859318625e-01 0 0 0
1065 1 2.8119711028504901e+00 2.7040161801595075e+00 1.4865063499813658e+00 0 0 0
968 1 4.2156072744060342e+00 2.3161532180483198e+00 6.0672626439586719e-01 0 0 1
3708 2 4.0107169811348307e+00 1.9290634325330036e+00 1.3199135752193094e+00 0 0 0
1166 1 3.8027570078228878e+00 2.9865260692818771e+00 1.3448336169827970e+00 0 0 1
3768 2 4.0540361658563047e+00 3.2130293973810993e+00 5.8392945076787961e-01 0 1 0
3676 2 8.4924848098610468e+00 1.2541898642269533e+00 2.2331071799929787e+00 0 1 1
3757 2 5.7773592712523456e+00 1.6332520204501646e+00 1.0807368907948325e+00 0 0 1
1764 1 5.2282364076843812e+00 2.2840989625090451e+00 7.5694321411641574e-01 0 1 0
1617 1 6.3749861794486877e+00 2.2956474990730702e+00 8.7589109278212840e-01 0 0 1
2174 1 4.6182011217540984e+00 2.1053274740288572e-01 6.9545325729879415e-01 0 1 0
1499 1 7.3981411386759008e+00 2.0213109109181566e+00 9.0881725067447428e-01 0 0 1
1544 1 9.2730679225913963e+00 1.6009681767648734e+00 5.2518053719177382e-01 0 0 0
1946 1 1.0117948220235228e+01 4.1527623361105928e+00 2.1593593860965039e+00 0 0 0
1965 1 9.2389027142302407e+00 1.3979833746048493e+00 1.6913078107708786e+00 0 0 0
1145 1 8.8621691119402062e+00 4.4219605595009197e+00 4.2733404994875857e+00 0 0 0
2996 1 3.2247770521820178e+00 4.7481079944423366e+00 1.1526225536623596e+00 1 0 0
4228 2 2.0248879750730504e+00 7.7691154487300920e-02 1.8295102888635926e+00 1 0 0
1001 1 7.2760695989014810e+00 2.7841539937197086e+00 1.7406878363285605e-01 0 0 0
3793 2 7.1018649999800143e+00 8.9424732612042854e-02 3.5253442946056474e-01 0 1 0
171 1 1.4319982437351095e+00 4.4980107356604293e+00 1.1078273619274233e+00 0 0 1
1513 1 7.0849247057526537e+00 4.3466866180436812e+00 7.4856913316664153e-01 0 0 0
952 1 8.3725029058558764e+00 1.8161762850879331e+00 1.2320676133946673e+00 0 0 0
656 1 3.3361854577361436e+00 3.5824664928508945e+00 5.1780400099368873e-01 0 0 1
2159 1 1.0200181522503380e+01 3.2544341986546597e+00 4.0377390371973529e+00 0 0 0
717 1 2.4152071633957539e+00 4.1031283920375952e+00 6.8599260863140510e-01 0 0 1
1783 1 4.6292838269508083e+00 2.3554052154983313e-01 3.0597415619361730e+00 0 1 0
668 1 3.0120571685025732e+00 3.7557095546785084e+00 1.5270764754838420e+00 0 0 0
2201 1 8.5979602794573520e+00 3.7681364102758210e+00 1.1266656959422399e+00 0 1 0
1472 1 9.2397351252984201e+00 3.6112399660376693e+00 1.9658271711546402e+00 0 0 0
1019 1 4.8560221940966866e+00 3.2385573491449295e+00 9.8919821573543276e-01 0 0 0
1198 1 4.0103226252977535e+00 4.0181270249567786e+00 1.1860998054599670e+00 0 1 0
3627 2 4.8256121151270683e+00 4.2128820305569494e+00 8.6032917426423461e-01 0 0 1
1870 1 8.5012376253596464e+00 9.1484225187947332e-01 4.9330108535637579e-01 0 1 1
3503 2 8.1926370734887382e+00 1.7740534625546092e+00 3.8929887758528952e+00 -1 0 2
567 1 5.8750083094021690e+00 3.2651226018566764e+00 1.1687001227282581e+00 0 0 0
669 1 5.5667259760788186e+00 4.2279251509963203e+00 1.4167873826025681e+00 0 0 1
3865 2 6.1824490460462274e+00 4.2141242015249478e+00 8.4190526611076344e-01 0 0 0
1051 1 5.5044516560786194e+00 3.8710664695552994e+00 3.2193760306309399e-01 0 0 0
2965 1 8.7174463511299982e-01 4.0339606144109492e+00 3.1241017080072537e+00 1 0 0
3588 2 2.4608453119830425e+00 3.8275626476810571e+00 3.6342289866899740e+00 0 0 0
3771 2 9.4043953966564935e+00 3.0069504943222696e+00 3.8186996018131163e+00 0 1 -1
503 1 8.0386033114147466e+00 2.9038572573810866e+00 9.1921516175005136e-01 0 0 0
1506 1 7.0075298072425278e+00 3.0525689044590845e+00 1.1143551265563247e+00 0 0 0
1564 1 7.8786889447941810e+00 3.6951093958843138e+00 3.6077198911636604e-01 0 0 1
1572 1 7.6267053001108707e+00 3.8853872494629673e+00 1.5527122155303013e+00 0 0 1
1671 1 9.5463388887810066e+00 3.3257036820804640e+00 8.2692763601056574e-01 0 0 1
2141 1 8.0785299006339280e+00 4.7849056741608278e+00 8.1661880895304340e-01 0 0 1
474 1 9.9056916136316475e-01 1.2866066512574018e-01 3.7510819038763938e+00 0 1 0
94 1 1.7887820769806144e+00 3.8682673441610971e-01 3.2309409671999010e+00 0 0 0
2145 1 9.6332799373534730e+00 2.2577861166287660e+00 3.3636633588063609e+00 0 0 0
2468 1 9.9125309838336477e+00 2.2235337903043986e+00 1.2254107538181698e+00 0 0 0
520 1 1.1375911263135332e+00 1.4547162565353176e+00 1.8643372104589395e+00 0 0 0
4133 2 1.0526841566490273e+01 4.6137059326896654e+00 4.0306998054486707e+00 0 0 0
715 1 1.1979873979930420e+00 1.1530300449461117e+00 2.8620582768810179e+00 0 0 0
1607 1 9.0175428800906481e+00 4.6960761839089962e+00 3.8676478991172558e-01 0 0 1
1000 1 2.2028072606604825e+00 1.7021689237196238e+00 1.5881953805811662e+00 0 0 0
4214 2 1.7031169746323258e+00 1.7961449957280766e+00 2.5031592618971810e+00 1 0 0
817 1 1.9860920693257016e+00 8.8884945883876543e-01 2.2452759787708274e+00 0 1 0
159 1 3.0346165902764639e+00 1.2972894968260276e+00 2.0976887172927574e+00 0 0 0
992 1 2.2493493726609981e+00 1.4382120606376343e+00 3.1339352555951674e+00 0 0 0
966 1 2.8227630097265930e+00 6.0336452137982710e-01 3.0134442182335719e+00 0 0 0
1134 1 3.4045943373827803e+00 1.6276091361194653e+00 3.0072980832085210e+00 0 0 1
1040 1 4.1413644716866438e+00 1.4569730577549291e+00 2.0233079130508873e+00 0 0 0
1358 1 3.7685346067182417e+00 6.3359256464753044e-01 2.5613746902059513e+00 0 1 1
1621 1 7.7769754881340454e+00 4.2474123527657115e+00 3.2606511992350073e+00 0 0 0
3878 2 4.7074586291076299e+00 9.3526371859269686e-01 2.5112508835688399e+00 0 0 1
631 1 4.3965010836843161e+00 1.2586197855197818e+00 3.2606909343195167e+00 0 0 0
3756 2 5.8316862998344048e+00 3.8542786109272864e-01 1.6519834706145500e+00 0 0 1
1357 1 5.3533080364789143e+00 3.6641674545517183e-01 2.3335432345845235e+00 0 1 1
575 1 5.4832062328221252e+00 1.0698517950037278e+00 3.0905376261280422e+00 0 0 0
722 1 5.9208325361977430e+00 1.2132364106372404e+00 1.8437682191991347e+00 0 1 0
1147 1 6.3004050728268508e+00 6.0469942642917829e-01 2.7497453274416985e+00 0 0 1
1351 1 6.8791271688533895e+00 7.2832201325245083e-01 1.9243853335473435e+00 0 1 0
3775 2 7.2406940078350832e+00 3.9439128405509838e-01 2.8909249256454479e+00 0 1 0
1098 1 8.1757543851323966e+00 1.9539923586085279e+00 2.2867617343294952e-01 0 0 1
1457 1 9.4560728302233237e+00 3.8787848076734592e+00 3.5847020589099019e+00 0 0 0
986 1 1.2668554504947072e+00 4.6230833660030077e+00 4.7455129451515239e+00 0 0 0
3492 2 1.2979708883796512e+00 2.8195886858852243e-01 2.4765463997229098e+00 0 0 0
137 1 1.3844500424822976e+00 6.6037616478291605e-01 1.5978917257669037e-01 0 0 1
767 1 7.4776986600546458e+00 2.7490231254644959e-01 1.1948837323454804e+00 0 1 0
559 1 2.5910525285318160e+00 4.6940845395531934e+00 3.9611614276976983e+00 0 0 0
431 1 8.4164898641338226e-01 2.1716575794523156e+00 2.5646532071163657e+00 0 1 1
558 1 1.7782602693551459e+00 2.5684843057238607e+00 1.9116060206327614e+00 0 0 0
50 1 4.6829807774573418e+00 4.6612383043813157e+00 1.6554957284907761e+00 0 0 0
83 1 1.7138089406948782e+00 3.3902774946288838e+00 2.6246383261213304e+00 0 0 0
166 1 1.7319145421214230e+00 2.4194826272190166e+00 3.1676619536415989e+00 0 0 0
1376 1 2.6700924883476538e+00 2.2525838141180379e+00 2.4405671250299834e+00 0 1 0
3606 2 2.4690225693557544e+00 3.1882291730880490e+00 2.1278386272097034e+00 0 0 0
2941 1 3.3619401508801867e+00 3.2451976618746028e+00 2.3084475915420355e+00 1 0 0
3608 2 3.3677701056362555e+00 2.5734759412162065e+00 2.8499750726354005e+00 0 0 0
3128 1 2.6348648688923433e+00 3.1701066049250559e+00 3.1163582965901417e+00 1 0 0
555 1 3.5965785359897815e+00 2.2775075939815435e+00 2.0736649339471329e+00 0 0 0
505 1 4.5929718943033331e+00 2.3987026260328816e+00 1.6789646454415441e+00 0 0 0
663 1 4.2643082936070478e+00 2.2508849728804528e+00 2.9289026518994690e+00 0 0 0
3686 2 4.1485731506745243e+00 2.8815868354792751e+00 2.2084199725605353e+00 0 1 0
1446 1 5.0319469592455324e+00 2.9025215993466507e+00 2.6008477797884089e+00 0 0 0
568 1 5.0843932948908090e+00 1.7937806892236878e+00 2.4193572229194005e+00 0 0 0
3703 2 5.1652998191468340e+00 3.0836787983223881e+00 1.7309067955227813e+00 0 0 0
3533 2 6.1598303302714132e+00 1.5013194850244016e+00 2.6847023526782285e+00 0 1 0
1462 1 5.6625543112331265e+00 2.3696739308581236e+00 1.7379475354878995e+00 0 0 0
1511 1 5.8982230251841283e+00 2.3392050631890955e+00 2.8496713546048622e+00 0 0 0
1561 1 6.5385027152482342e+00 2.8726132339684978e+00 2.0455586785597801e+00 0 0 0
2197 1 7.0305334563879978e+00 1.3152554654813848e+00 2.8171867961831696e+00 0 1 0
566 1 6.6610545527913088e+00 1.8568356988273846e+00 1.9510835334076964e+00 0 0 0
1437 1 7.5149820801457103e+00 2.6369555760112240e+00 1.9857849609331533e+00 0 0 0
2101 1 7.6627893546303705e+00 1.4328555558135556e+00 1.8783404316744776e+00 0 0 1
3946 2 7.6709867443373696e+00 1.9689204555024318e+00 2.5941787161057639e+00 0 1 0
1721 1 7.0189143393031470e+00 2.4294940465768420e+00 2.8748851176155927e+00 0 1 0
2421 1 7.9729249476989628e+00 2.5109957994630854e+00 3.2205531378140062e+00 0 0 0
2689 1 9.2022165004860081e+00 1.3951053720290723e+00 2.7093837175577056e+00 0 0 0
574 1 3.8543740436269700e+00 4.0590844043490240e+00 4.7962971256647080e+00 0 0 0
1191 1 5.2575645004693827e+00 4.5114409171205097e+00 3.8542616779933314e+00 0 0 0
1696 1 7.7178291176086393e+00 4.1337468637127905e+00 4.4024442002349238e+00 0 0 0
242 1 3.5329731708562315e+00 9.0863500709999739e-02 1.1113942429043229e+00 0 0 1
2037 1 7.0965190440174961e+00 4.6127803950436803e+00 2.5410611605202935e+00 0 0 0
615 1 2.0126898613320869e+00 3.7044262245948749e+00 1.6093896746222187e+00 0 0 1
3028 1 1.1329831971878708e+00 4.0905586275171544e+00 1.9897889843073349e+00 1 0 0
3610 2 1.3218463817723736e+00 4.6203812148084529e+00 2.7433360902048527e+00 0 0 0
386 1 5.0900524202181039e+00 9.3759202862870192e-02 4.0758739936079689e+00 0 1 0
1218 1 4.7366199048609259e-01 1.2756536460416319e+00 1.1305999835665568e+00 0 1 0
1071 1 6.7301479093564511e+00 1.5550111101865947e+00 4.6852533074240705e+00 0 0 -1
1039 1 3.7084496418670616e+00 4.2820635615698075e+00 2.1793607152865313e+00 0 0 0
4238 2 2.4523824811314685e+00 4.4351988090550618e+00 1.4732360456628180e+00 1 0 0
3619 2 3.4050852750206966e+00 3.7725198612013457e+00 3.0171028607730395e+00 0 0 1
586 1 2.6886459410525174e+00 4.0117060549578722e+00 2.4803957530566647e+00 0 0 0
1022 1 3.1875010614427017e+00 4.7128352039379404e+00 3.0819604696405336e+00 0 0 -1
1682 1 7.2986698790611291e+00 3.2720655176082647e+00 3.5950527628155973e+00 0 0 0
1440 1 4.1528660342850525e+00 3.4566806230045373e+00 2.8675677287376442e+00 0 0 0
664 1 4.6575411286123245e+00 3.6596196574490079e+00 1.9754624958304139e+00 0 0 0
550 1 4.4707094024766043e+00 4.5035414113039653e+00 2.9008077630872302e+00 0 0 0
655 1 5.3789704926577295e+00 4.4233937159596959e+00 2.4130427843718576e+00 0 0 1
994 1 5.2402974659912172e+00 3.7404374794229160e+00 3.2252986197261611e+00 0 0 0
1428 1 6.5972469439445440e+00 3.9097383918156661e+00 1.6428510582086344e+00 0 0 0
1613 1 9.8692960610082903e+00 4.1414294480693901e+00 4.5273798883545098e+00 0 0 0
534 1 6.3799991013386110e+00 3.2567952946108889e+00 3.1115881054954428e+00 0 0 0
1271 1 5.8345314398445369e+00 3.5919041691257747e+00 2.2772704435745985e+00 0 1 0
1050 1 5.8577685453144079e+00 2.8331889542014901e+00 3.9352258535135812e-02 0 0 0
3838 2 6.9440268266463914e+00 3.9876743217149224e+00 3.2187729797133922e+00 0 0 0
3127 1 3.2808368495621449e+00 4.0057619110506035e+00 3.8144797215663528e+00 1 0 0
1072 1 8.2517476879877272e+00 3.3272364864820263e+00 2.1038932180599228e+00 0 0 0
1535 1 7.2404671814952719e+00 3.5630043454759952e+00 2.5107440112384296e+00 0 0 0
3964 2 8.0642389812675415e+00 3.3140134255972495e+00 2.9665066615417195e+00 0 1 0
1858 1 8.0254058886944399e+00 1.2645987996462382e+00 4.6171574512165776e+00 0 1 0
1103 1 8.7875950465947330e+00 4.9188881537026791e-01 4.2087950632478552e+00 0 0 0
2076 1 8.1701881317276026e+00 1.4955354601402255e+00 3.0044413226648401e+00 0 0 1
3040 1 3.6331528384643805e+00 4.5527121529892014e+00 1.7238635514112577e-01 1 0 0
570 1 4.5588864480093505e-01 3.7065355958900287e-01 2.8877948498734063e+00 0 0 0
3688 2 2.8487906686141029e+00 4.0712708417616632e+00 4.5870870868671050e+00 0 1 0
599 1 2.9903282990877305e+00 3.7912204657737830e-01 4.1675800686553455e+00 0 0 0
3121 1 9.0837411561245585e+00 3.3449205062325547e+00 4.5649130839807190e+00 0 0 0
194 1 8.5720222515102784e-01 8.0494633153694983e-01 4.5709991801869707e+00 0 0 0
3855 2 7.8779796489897147e-01 9.8006119038648098e-01 3.6141069526081586e+00 0 0 0
3192 1 9.1145012897448874e-01 2.0228664751931769e+00 3.6127218448496516e+00 1 0 0
1538 1 8.6344237769086689e+00 4.1190206042987221e-01 3.1441368369930740e+00 0 0 0
1880 1 8.6384846422474304e+00 3.9997538099113856e+00 2.7566783739456300e+00 0 0 0
1584 1 1.5481897587596336e+00 1.1658289472683458e+00 3.9358924457473217e+00 0 0 0
3464 2 2.3634992769333740e+00 9.2209114284760574e-01 3.9170284246943265e+00 0 0 -1
652 1 2.6375048753237689e+00 1.5584055171455429e+00 4.3870911874321994e+00 0 0 0
1622 1 8.4090694870698428e+00 3.5167572753285015e+00 3.6735689802666913e+00 0 0 0
991 1 7.9080306200445900e+00 5.9809698728076810e-01 2.4289280139219613e+00 0 0 0
4264 2 3.5787140611016475e+00 7.8776821460734126e-01 3.3835549150895705e+00 1 0 1
1054 1 4.1330835893130162e+00 5.6704501806839547e-01 4.0582933171479487e+00 0 0 0
481 1 3.5716859592283328e+00 1.4188649261695152e+00 4.1497264419766022e+00 0 0 0
235 1 5.1255740013543321e+00 1.1093721976722839e+00 4.0219228211911799e+00 0 0 0
887 1 2.0193796621633018e+00 2.7705288234251435e-01 4.3060259878442029e+00 0 1 0
3856 2 5.8751869149184310e+00 5.2546081227730002e-01 3.6179286884753012e+00 0 0 0
2360 1 5.9781471386302396e+00 8.0758722189367960e-01 4.4700986829133234e+00 0 1 0
2064 1 1.2008822316061787e+00 2.9117546139432964e+00 2.3925962962544459e-01 1 0 1
3587 2 7.8901504507075959e+00 4.1874634844199470e+00 2.3881156166174873e+00 0 0 0
1950 1 7.7354390559275057e+00 7.9081072084437187e-01 3.5891628468846619e+00 0 0 0
4029 2 7.1944168334721290e+00 9.7176112453900920e-01 4.2897570500736073e+00 0 1 0
580 1 6.7610846990266920e+00 5.3891981273346889e-01 3.7112362760593971e+00 0 0 0
2132 1 9.6062195721570642e+00 5.5120662496352446e-01 3.5102878813334701e+00 0 0 0
4129 2 9.5135107039847391e+00 3.8154350753849733e+00 2.7235933982745673e+00 1 0 1
1425 1 8.7754931693179365e+00 2.4623340798495068e+00 3.9528612715727585e+00 0 1 0
17 1 6.6284712448685390e-01 5.4753476301516124e-01 1.9249470555229062e+00 0 0 0
1242 1 4.7943585509322357e+00 1.3958558166114257e+00 3.7184986566127670e-01 0 1 0
906 1 8.5154042253489575e+00 2.1537673752890716e+00 2.2780921751329615e+00 0 1 0
2962 1 6.7377025987847505e-01 3.1226646256319670e+00 2.2719868089364814e+00 1 0 0
3772 2 2.1472035240820202e+00 4.7588279215634227e-01 6.6477396808216316e-01 0 1 1
2108 1 6.9745224952385243e+00 3.3824547737333344e+00 4.7214633658269962e+00 0 0 0
2006 1 1.0364332518049583e+01 3.8383770629760412e+00 9.2585583378163339e-01 0 0 0
3480 2 1.0945512004330737e+00 2.6827188359747991e+00 4.1467837870719055e+00 0 0 0
700 1 9.7025089000624820e-01 3.4914435298015634e+00 4.3524383955170647e+00 0 0 0
288 1 1.7048741008096453e+00 3.3068041274620077e+00 3.6491996738737869e+00 0 1 0
4208 2 1.8060794499739221e+00 3.1595425443820364e+00 4.5985320733307935e+00 1 0 0
543 1 1.9230361776697913e+00 2.3028022362284308e+00 4.1568965106549411e+00 0 0 0
1165 1 2.8933792383975527e+00 2.3097399443405497e+00 3.5739268293722830e+00 0 0 0
802 1 2.7359724408098214e+00 3.2092893878377731e+00 4.2105334012391795e+00 0 1 0
572 1 3.5853228157165340e+00 3.0621337254728958e+00 3.5444487932089097e+00 0 0 0
1167 1 3.4170701475679262e+00 2.4177715192260609e+00 4.5865175439130619e+00 0 0 0
548 1 5.9393123908909020e+00 3.0513777071424841e+00 4.7599917586793845e+00 0 0 0
3719 2 3.6176846137341299e+00 3.2853651554979044e+00 4.3925462273013203e+00 0 0 -1
4119 2 3.9120438743814012e+00 2.1822822063300831e+00 3.7524154912701269e+00 0 0 0
1007 1 4.5244109699222550e+00 1.8831213493910575e+00 4.3364102877154407e+00 0 0 0
2164 1 4.5905407428389333e+00 2.8700024276413258e+00 3.7087024540016551e+00 0 0 1
3884 2 5.1021515041094139e+00 2.7570832920924575e+00 4.4304963619642228e+00 0 0 1
1062 1 5.1297305092602477e+00 2.0333623723385323e+00 3.5110845021546444e+00 0 0 0
1194 1 6.3459411942672892e+00 1.4859168358986514e+00 3.6014775700369372e+00 0 1 0
814 1 5.7340999098657646e+00 1.9929698385505004e+00 4.3331647713248360e+00 0 1 0
1081 1 5.7082446409626240e+00 2.8540369041363829e+00 3.8079834646261324e+00 0 0 1
860 1 6.7149566193112733e+00 2.5472910353635596e+00 4.0917620941109911e+00 0 1 1
3460 2 8.8036037549008821e+00 2.1207991701795925e+00 3.1327812335332701e+00 -1 0 0
2250 1 9.0220867793332538e+00 1.4165110139616137e+00 3.8056517432226014e+00 0 1 0
2098 1 6.5429974546189866e+00 3.5700561433763673e+00 3.2883856207233314e-01 0 0 1
1573 1 7.3190357808890427e+00 1.6962322594951433e+00 3.7908390248691064e+00 0 0 0
537 1 7.7547834022163187e+00 2.4949500327376750e+00 4.2328469498951691e+00 0 0 0
508 1 6.1192863266506867e+00 4.2983457898647401e+00 3.1371126396038012e+00 0 0 0
2084 1 8.8639943725371371e+00 3.6358417499857150e+00 6.3653096074174076e-02 0 0 1
2063 1 1.0085238638627457e+01 3.1791482905242825e+00 2.9926775399632821e+00 0 0 0
124 1 5.2129642958916271e+00 3.6231660278440523e+00 4.3153784011861633e+00 0 0 0
177 1 1.9420818782144464e+00 4.3343686605008545e+00 3.2534977175113888e+00 0 0 0
1505 1 4.3192747367215247e+00 3.9131656471423426e+00 3.8479157260220602e+00 0 0 0
232 1 1.9565223358993156e+00 3.9670680442457402e+00 4.3775006621109611e+00 0 0 0
1474 1 1.0421994543946406e+01 4.2308236304141511e+00 3.2125917415688550e+00 0 0 0
4148 2 1.2807176342330360e+00 4.1728399760992829e+00 3.8385266254750139e+00 1 0 0
3590 2 6.1351643918052918e+00 4.7150952573485707e+00 4.0069636677108997e+00 0 0 -1
1519 1 9.0604044514907578e+00 4.7686509736755656e-01 2.1739037469075626e+00 0 0 0
1689 1 9.5111320802741197e+00 2.3914690521824280e+00 4.7697956464177187e+00 0 0 0
964 1 1.0158583514997876e+01 3.1276864873773551e+00 1.7511946161911225e+00 0 0 0
955 1 7.0080451141614297e+00 4.6332172552781321e+00 3.7836709847480354e+00 0 0 0
970 1 5.7948682770823412e+00 4.3709649394887142e+00 4.7843216241871334e+00 0 0 0
878 1 7.7300611701246078e+00 1.6490792580408972e-01 4.4611363938239821e+00 0 1 0
1137 1 9.4432746707526096e+00 4.7148608007225068e+00 2.7714053439839481e+00 0 0 1
513 1 4.7943383814654963e+00 4.6361266943843766e+00 4.7980708110458687e+00 0 0 0
636 1 1.9707794751068173e+00 4.7373977813378572e+00 2.2112169865308000e+00 0 0 1
1906 1 6.7476346144290975e+00 1.9151649969295534e-01 4.7371813765109669e+00 0 1 0
1488 1 6.4012095106641631e+00 4.5689968064323008e+00 1.9752464313065529e-02 0 0 0
628 1 6.8613223081049357e+00 4.4533189630152288e+00 4.8221174336079500e+00 0 0 0
2100 1 1.0050637811990500e+01 3.6814466736894182e+00 6.1248230423486190e+00 0 0 0
3565 2 8.3754482831593489e+00 4.1229148090549499e+00 4.9347763117072239e+00 0 0 0
617 1 6.1417781585334126e+00 4.5003826118308190e+00 8.0539026955706845e+00 0 0 0
1171 1 9.0917048502899291e+00 2.8995270612899184e+00 5.5700331254463924e+00 0 0 0
1069 1 3.1517077995707732e+00 1.6201790901051663e+00 5.2847678947759889e+00 0 0 0
4078 2 9.0047766784043031e+00 1.0042977636326875e+00 5.7928061933649024e+00 0 1 0
3545 2 9.0149740745060836e-01 1.3299369984836098e+00 5.3499055180168256e+00 0 1 0
975 1 9.0230758836985743e+00 1.4085782525579578e+00 4.8753838879414388e+00 0 0 0
4220 2 8.5065473745816309e+00 1.2771473508239228e+00 7.3327618022189460e+00 0 0 -1
3728 2 9.9201995394019793e+00 3.2469200719564442e+00 7.7982618157430545e+00 0 0 0
1628 1 8.5860375206524022e+00 4.1578562188307222e+00 8.0490045483840635e+00 0 0 0
706 1 1.6692572492900042e+00 1.0203421454164727e+00 5.9882656335424054e+00 0 0 0
2385 1 7.4795879658499125e+00 1.5359955329468444e-01 8.1461048214756655e+00 0 1 0
3513 2 2.3643120579334811e+00 1.4981530344393155e+00 5.7203425047735772e+00 0 0 0
842 1 2.4038724818833939e+00 8.2517644455976991e-01 5.1479728149728432e+00 0 1 0
913 1 2.9671598859705552e+00 1.2309572059736422e+00 6.2979514897262545e+00 0 1 0
517 1 5.3068397882325762e+00 4.6084931690889146e+00 9.2645189238331813e+00 0 0 0
1904 1 8.2655217811692623e+00 1.4054545292406295e+00 5.7582154807510380e+00 0 1 0
3611 2 4.1920226651055517e+00 3.9687043885906698e-01 5.4548260033774714e+00 0 0 1
3752 2 3.7686528689292977e+00 1.3418907358433054e+00 5.8310981702617406e+00 0 0 0
526 1 3.3302076551758208e+00 5.6048165672895567e-01 5.6221391272287411e+00 0 0 -1
1080 1 4.0374660691066486e+00 6.8482010644319646e-01 6.3149584349983732e+00 0 0 0
1514 1 6.6040817162934911e+00 2.9588380008148252e+00 8.9173158413015994e+00 0 0 -1
1128 1 4.7011133965088545e+00 1.3177777864308242e+00 5.8304728718691949e+00 0 0 1
1557 1 9.6558212860701360e+00 3.9675340434454114e+00 8.0638752123696715e+00 0 0 0
2053 1 9.1244411279381250e+00 1.9625357822570586e+00 6.0870256914766152e+00 0 0 0
1683 1 5.7644481949775885e+00 7.5349182201830112e-01 6.2233851977890229e+00 0 0 0
1199 1 5.7189759702108649e+00 1.3979317657930717e+00 5.3251866876035718e+00 0 1 0
3749 2 8.3574197158478771e+00 3.3142835950368146e+00 8.2846594692201769e+00 0 0 0
4122 2 6.4315444541726539e+00 8.4694269635296870e-01 5.2392203661445125e+00 0 0 0
1349 1 6.7066173316163331e+00 3.0233724852404392e-01 6.0429539253413376e+00 0 1 0
889 1 7.3681440222144543e+00 8.3225539607906074e-01 5.2588957963876295e+00 0 1 0
1021 1 8.2579712311553095e+00 2.8624066085975972e+00 9.3349979348069514e+00 0 0 0
1654 1 7.4603407059513511e+00 1.0852729149208176e+00 6.3622308984713234e+00 0 0 0
1624 1 7.0594655821832895e+00 4.7446866935156642e+00 8.6886834844116922e+00 0 0 0
3814 2 1.2283315625108364e+00 2.5473617568442475e-01 6.2032778698823572e+00 0 1 0
21 1 2.1571737448356449e+00 2.2277098942999616e+00 9.5992258332792719e+00 0 0 -1
1099 1 3.6550512030733371e+00 4.6884114802024603e+00 6.4821266318321848e+00 0 0 0
1963 1 8.4789310970548737e+00 2.3044276688714036e+00 4.9436579308530018e+00 0 0 0
1566 1 6.8760111065667511e+00 3.8082521528068263e+00 8.2581481249327702e+00 0 0 0
110 1 6.4520494969513442e-01 2.1573082068152676e+00 5.7020562004867186e+00 0 0 -1
4297 2 3.4360766781241532e+00 1.5641138260372717e-01 8.3398220306264559e+00 1 1 1
695 1 1.7419213317836120e+00 2.0623964236161028e+00 5.9679348889752468e+00 0 0 0
602 1 1.3777885304564088e+00 2.6492685786338885e+00 5.1485418782156316e+00 0 0 0
2586 1 1.3024698227931470e+00 3.0185828953380862e+00 6.2214317202703553e+00 1 0 0
4302 2 2.0903606973515667e+00 3.0073456443832391e+00 5.8749640344854273e+00 1 1 0
1180 1 2.7965780800619240e+00 2.3350445925154362e+00 6.0002403225289198e+00 0 0 0
1482 1 3.4322617388300700e+00 3.2259003900633876e+00 5.2216489486970303e+00 0 0 0
370 1 2.6685843152728319e+00 5.3033034793706879e-01 8.3565779157771836e+00 0 1 0
675 1 2.9055831437545403e+00 3.4149274376669303e+00 6.1720422879366907e+00 0 0 0
676 1 2.4719388406415113e+00 3.5555876805566822e+00 5.1874604633347392e+00 0 0 0
1114 1 4.0856014867002655e+00 2.1578499377098228e+00 5.3598659334359100e+00 0 0 0
1187 1 4.7251904431684251e+00 2.3416082891930254e+00 6.1503930285682209e+00 0 0 0
659 1 3.9024432794944186e+00 2.9590176727476978e+00 6.0831723284339594e+00 0 0 0
3713 2 4.6297692466530611e+00 3.0326642932782297e+00 5.6512050624944479e+00 0 0 0
698 1 3.7186429832107368e+00 1.9871947796630554e+00 6.4888411530067245e+00 0 0 0
1177 1 5.1811517606938731e+00 2.3477201259533031e+00 5.2419278448687514e+00 0 0 0
1853 1 5.6367192998745006e+00 1.8269346906711013e+00 6.2238052803164798e+00 0 1 1
3123 1 5.7116735672662120e+00 2.9517595063777415e+00 5.9347137033764490e+00 1 0 0
3577 2 6.3782226370146722e+00 2.3285068254002450e+00 6.2145291449300677e+00 0 0 -1
1676 1 6.4512374288016865e+00 2.3439731635882497e+00 5.3386541064324895e+00 0 0 0
1647 1 6.6681451106265204e+00 1.4933336129145665e+00 5.8635039251668211e+00 0 0 0
3707 2 7.0073515905960821e+00 1.1968738272400294e+00 9.1859840073336709e+00 0 0 -1
592 1 4.7023681301052245e-01 4.5166432636804227e-01 8.8049070941982919e+00 0 0 -1
1153 1 7.2618633710031659e+00 2.3279634277078851e+00 6.4010507946962321e+00 0 0 0
4284 2 9.4078741344922463e+00 2.6055026430914807e-01 6.9847914075039359e+00 0 1 0
998 1 7.9554075959973156e+00 4.4634888909184003e+00 6.5903482534679503e+00 0 0 0
3482 2 8.3446958190850040e+00 4.4662550912415995e+00 9.5457603948620324e+00 0 0 0
2610 1 9.6272057250489098e+00 2.5234280221400405e+00 8.2448559266833072e+00 0 0 0
1688 1 9.1163658666062890e+00 3.9891163694100733e+00 5.3476526578517154e+00 0 0 0
1079 1 1.3651761654592618e+00 3.7357008334977215e+00 5.3302819060527895e+00 0 0 0
223 1 1.1215612578224927e+00 4.6448902139327277e+00 5.8667395548273351e+00 0 0 0
1133 1 2.0779336987173966e+00 4.0058304458035199e+00 5.9900458808422590e+00 0 0 0
4130 2 8.4893202842528481e+00 4.6787804584970329e+00 7.2409506247408721e+00 0 0 -1
1115 1 8.3723253264280224e+00 3.6185924618313199e+00 5.9608311615968121e+00 0 0 0
601 1 3.1730436694430950e+00 4.2973593456122545e+00 5.6519679163184273e+00 0 0 0
1093 1 4.1953715767113415e+00 3.9099980445023514e+00 5.8225217182361710e+00 0 0 0
1814 1 9.4833872744692016e+00 4.6683055045916599e-01 8.6461127793770984e+00 0 1 0
2088 1 5.2112252079153087e+00 3.6559555038364113e+00 5.3997017152778568e+00 0 0 0
127 1 4.9230364243898777e+00 3.3583868084408603e+00 6.5153307967461265e+00 0 0 0
784 1 7.7962973190893079e+00 6.9351065016719371e-01 7.3220218148150336e+00 0 1 0
1085 1 6.2982486875768178e+00 3.6874613360732962e+00 5.4436339080397191e+00 0 0 0
3016 1 5.7972599269322034e+00 3.9250143575441054e+00 6.3534308667124595e+00 1 0 0
1184 1 6.9866611144036286e+00 4.1238039617184352e+00 6.2842754448978031e+00 0 0 0
1030 1 7.2750710392647067e+00 3.1630176014042282e+00 5.7430637884976612e+00 0 0 0
1504 1 7.7412509354448842e+00 4.2859461216188945e+00 5.5180916896128123e+00 0 0 0
2071 1 8.6351995231183434e+00 3.8670922995825823e+00 7.0247054306170247e+00 0 0 0
1438 1 9.1326919327437697e+00 4.4279469489360324e+00 8.9483976940119820e+00 0 0 -1
4030 2 9.1586088044683187e+00 3.6106904128941171e+00 6.1583726568147474e+00 0 0 0
1498 1 4.8558154928499064e+00 1.8387883312376363e-01 5.9171817004348011e+00 0 0 0