LAMMPS data file via write_data, version 12 Dec 2018, timestep = 446160

4320 atoms
2 atom types

0.0000000000000000e+00 1.9309999999999999e+01 xlo xhi
0.0000000000000000e+00 1.9309999999999999e+01 ylo yhi
0.0000000000000000e+00 9.6549999999999994e+00 zlo zhi
6.5267799999999987e+00 0.0000000000000000e+00 0.0000000000000000e+00 xy xz yz

Masses

1 1
2 1

Atoms # atomic

4263 2 5.3505979595173736e+00 4.3317551808360832e+00 2.1636063236583607e+00 1 0 0
1526 1 3.4038962823086480e+00 3.0730514917346730e+00 4.7658407145261830e+00 0 0 0
1433 1 8.8265699813367711e+00 4.0041467444630019e+00 1.3867462098034804e+00 0 0 0
2159 1 9.1222558358395212e+00 2.9003595483248890e+00 4.0181916644704510e+00 0 0 0
1684 1 1.0139368728597599e+01 3.0266390493722009e+00 2.4318800642866067e+00 0 0 0
1502 1 7.7803709467927451e+00 4.1996574762978511e+00 1.8826184169046867e+00 0 0 0
1103 1 7.7638214675934716e+00 2.3177771659664612e-01 4.2838991404167084e+00 0 0 0
2513 1 8.1810189855467446e+00 1.3318412538414900e-01 1.0062679202523341e+00 0 0 0
1979 1 8.6760677068368395e+00 1.9692310502939288e+00 2.4449793456589601e+00 0 0 0
851 1 1.1853479141563721e+00 1.4473260113417066e+00 5.7977244619111878e-01 0 1 0
253 1 1.6939202148535539e+00 7.0551468504820769e-01 1.2150531487512164e+00 0 1 0
1190 1 2.1444655927741718e+00 1.7015962674867244e+00 1.1533875414877752e+00 0 0 1
3918 2 2.0432898978182443e+00 1.7946717160666368e+00 3.6060895289259293e-01 0 1 0
30 1 5.3684923773982076e+00 3.6597292915203434e+00 4.0866698350417563e+00 0 0 0
1127 1 2.1387776764489685e+00 9.6844255955824587e-01 2.3260652920402958e-01 0 0 1
1554 1 3.0341319837955130e+00 1.2610596023618243e+00 8.3691195105644789e-01 0 0 1
4116 2 2.5121546508803347e+00 8.7023107439443836e-01 1.5121040526830685e+00 1 0 -1
95 1 3.3895824974604336e+00 5.2712660595297656e-01 1.5609572214611851e+00 0 0 0
1488 1 5.6943082631596704e+00 4.4212836255552226e+00 1.0738613539615431e-01 0 0 0
2275 1 9.9913547174424728e+00 3.2384087852398751e+00 1.2958071293181750e+00 0 1 0
870 1 3.9884056153864584e+00 1.5456516311367823e+00 1.3956738261927493e+00 0 1 1
1798 1 4.5918808084696954e+00 7.2546215263514024e-01 1.0241369900478476e+00 0 1 0
1571 1 7.3789331627520438e+00 4.7536379580902359e+00 2.7498139105039239e+00 0 0 0
1711 1 7.9820002142713973e+00 2.3758426848548084e+00 5.5878504942500484e-01 0 1 0
1615 1 5.5380789140317876e+00 1.1470061740595028e+00 9.9122666688548910e-01 0 0 1
1678 1 8.0250266127779657e+00 2.6033722808997473e+00 2.9549764799255200e+00 0 0 1
987 1 4.9112589359000651e+00 1.5800590984417144e+00 1.9782884943107504e-01 0 0 0
3775 2 6.1251962046747668e+00 1.8609263593528078e-01 2.8255990147153867e+00 0 1 0
1485 1 9.2488901008424325e+00 2.5409864923498005e-01 2.5467058530788451e+00 0 0 0
3468 2 6.4312997926936761e+00 8.9530765116834710e-01 1.3259649929542558e+00 -1 0 1
624 1 6.0174072856266427e+00 1.7444584654149635e+00 1.0513350783590114e-01 0 0 1
1470 1 8.3048588203647231e+00 2.6072037590466874e+00 1.6327052511122446e+00 0 0 0
1402 1 4.5940371074128112e+00 3.2169518541078850e-02 2.2192648783841565e-01 0 1 1
2131 1 1.0752285120804629e+01 4.6496700261754853e+00 3.3672169345361600e+00 0 0 0
115 1 5.4724622691595437e-01 9.2594679374086553e-01 1.3720620190725086e+00 0 0 0
2081 1 9.5632365852317935e+00 1.8360655255921692e+00 4.1364488958562449e+00 0 0 0
2460 1 9.8654428011543729e+00 3.7111178605733333e+00 3.9414097032989059e+00 0 0 0
3590 2 5.2666162144894413e+00 4.5292887630322403e+00 4.2488764965166297e+00 0 0 -1
1160 1 7.2921456885151787e+00 5.9429639917733390e-01 1.3163654977242922e+00 0 0 0
1001 1 6.6296856748512818e+00 2.5599101011108796e+00 1.3270743810290478e-01 0 0 0
622 1 1.2128642500182918e+00 3.1041118045038956e+00 5.9837846535493189e-01 0 0 1
3750 2 1.4078871582545260e+00 2.2349125223841746e+00 8.4805599546015498e-01 0 0 1
34 1 2.2165943132368704e+00 2.6655880635884124e+00 5.3876127195398960e-01 0 0 0
1065 1 1.6732097157695223e+00 2.8031797956796343e+00 1.5049488516643412e+00 0 0 0
968 1 3.3752324190365566e+00 2.2932702982840643e+00 6.3558361776960159e-01 0 0 1
3708 2 2.9079045430696486e+00 2.0734472251763010e+00 1.2943861367812612e+00 0 0 0
1166 1 2.8800311133063872e+00 3.0062177457458685e+00 1.2838569602782317e+00 0 0 1
3768 2 3.3801736514371008e+00 3.2762134723203395e+00 5.5926855576714374e-01 0 1 0
3676 2 7.5701162607780441e+00 8.9240961170044897e-01 2.1429266024554883e+00 0 1 1
3757 2 4.8166669138481710e+00 1.5975308889081308e+00 1.0895616706628435e+00 0 0 1
1764 1 4.4207596345304268e+00 2.3147751477311149e+00 8.0004748650548674e-01 0 1 0
1617 1 5.4967717255079238e+00 2.1981234827411651e+00 8.1685100895780183e-01 0 0 1
2174 1 3.6133184397784541e+00 2.8409070065293579e-01 6.1482520295356247e-01 0 1 0
1499 1 6.4012382231513580e+00 1.7535080977211988e+00 1.1400727270110897e+00 0 0 1
1544 1 8.2680338851265738e+00 1.2503435140962713e+00 4.1857686279028744e-01 0 0 0
1946 1 9.5053056036344632e+00 3.8072532234216045e+00 2.1588182102695215e+00 0 0 0
1965 1 8.3110498831217772e+00 1.0341650347679856e+00 1.6952720385735340e+00 0 0 0
1145 1 7.9604396345620243e+00 4.0167186356372619e+00 4.0657437199618522e+00 0 0 0
2084 1 8.2173025054423903e+00 3.3321995850156916e+00 1.3239751326172514e-01 0 0 1
4242 2 8.8743719312325418e+00 2.5505380750038947e-01 1.7611802497117004e+00 0 0 1
2048 1 1.0610255279664260e+01 4.1465915325611595e+00 2.4060697807744176e+00 0 0 0
3121 1 8.1789825783516577e+00 3.0032828553601050e+00 4.5770643061754743e+00 0 0 0
1050 1 5.0009027436643469e+00 2.7558702989919990e+00 4.9789329060856022e-02 0 0 0
1513 1 6.3702598415964982e+00 4.1968568746440411e+00 8.4892534610567316e-01 0 0 0
952 1 7.5357279648690216e+00 1.5945189131323669e+00 1.2772180058095197e+00 0 0 0
656 1 2.5493699262581773e+00 3.6956314610410521e+00 5.7612472272460158e-01 0 0 1
1076 1 9.9689302659196635e+00 1.1516468566189200e+00 1.0154478861658467e+00 0 0 0
717 1 1.5675524640748724e+00 4.2094100059391373e+00 7.6649090868248970e-01 0 0 1
1527 1 1.0025926933985337e+01 3.1054278876265640e+00 2.4469432402214841e-01 0 0 0
668 1 2.0868767383899831e+00 3.7800823486406823e+00 1.6246995553871493e+00 0 0 0
2201 1 7.9710043618854369e+00 3.5520042756723531e+00 1.0913932767649128e+00 0 1 0
1472 1 8.5348856075085866e+00 3.4270411808943173e+00 2.1886581374776717e+00 0 0 0
1019 1 4.1172482753074489e+00 3.3757640878927679e+00 9.8651268706021855e-01 0 0 0
1198 1 3.3460384944623183e+00 4.0008355677795260e+00 1.0898171263710552e+00 0 1 0
3627 2 4.2172823899759004e+00 4.2627014716071949e+00 7.7363171209999770e-01 0 0 1
1870 1 7.5050651173919016e+00 5.4899711432147857e-01 3.2124506887724097e-01 0 1 1
3503 2 7.1844472714391596e+00 1.6141379456943992e+00 3.7863979619464567e+00 -1 0 2
567 1 5.1125799651363426e+00 3.0864264644328840e+00 1.1956410866083382e+00 0 0 0
669 1 4.8015371723057534e+00 4.0627012961634446e+00 1.4565403689989338e+00 0 0 1
3865 2 5.4444128005231853e+00 4.1402904018653004e+00 9.1333175516761189e-01 0 0 0
1051 1 4.7649822840218521e+00 3.8235722311515361e+00 3.1120932674131563e-01 0 0 0
1783 1 3.7658657808497620e+00 2.2395878851576503e-01 3.2229268750745557e+00 0 1 0
3588 2 1.6005746672358943e+00 3.9759544617162277e+00 3.4895024482977957e+00 0 0 0
3771 2 8.2985339927942263e+00 3.0866946085886986e+00 3.6193744445444067e+00 0 1 -1
503 1 7.2211186135053680e+00 2.7137083599324314e+00 1.2389993344776249e+00 0 0 0
1506 1 6.2660047961217034e+00 2.9326867228925031e+00 1.1048979597852910e+00 0 0 0
1564 1 7.1511256390784324e+00 3.4171131919227942e+00 4.5619868484638476e-01 0 0 1
1572 1 6.9591652919146734e+00 3.6795917992248603e+00 1.5878921647418465e+00 0 0 1
1671 1 8.9015254054946134e+00 3.0179930240220298e+00 8.8166098362967027e-01 0 0 1
1029 1 5.4571300629777308e+00 5.8550068273487488e-01 1.1921881037639354e-01 0 0 0
2006 1 9.3819968188423992e+00 3.9463517708254345e+00 5.7674513051059706e-01 0 0 0
94 1 7.7456768915866236e-01 6.2652478879506213e-01 3.3359321056862323e+00 0 0 0
2145 1 8.7761225629753596e+00 1.9572464877839382e+00 3.4273809661054138e+00 0 0 0
2468 1 8.9790036843365790e+00 1.8415392763811262e+00 1.2587409189773955e+00 0 0 0
2996 1 2.4731004210719396e+00 4.6060920912701064e+00 1.1135657319155219e+00 1 0 0
3688 2 2.0785960638512679e+00 4.1888851545339634e+00 4.7637026055062286e+00 0 1 0
2649 1 9.9166992206225544e+00 2.7199162137657558e+00 3.4322352255975184e+00 0 0 0
1122 1 8.7927621439027792e+00 1.4751400491692546e-01 8.5013475646659828e-02 0 0 0
1000 1 1.1537397487661529e+00 1.7811040787521148e+00 1.5814409329846451e+00 0 0 0
1137 1 8.6483602659805321e+00 4.3343883392799789e+00 2.6682291077206015e+00 0 0 1
817 1 9.2600025066669933e-01 1.0795498233579708e+00 2.3761598954097480e+00 0 1 0
159 1 1.9283957515254897e+00 1.2738600663583550e+00 2.0981153008765441e+00 0 0 0
992 1 1.2525362019749555e+00 1.6082909096966738e+00 3.1867714974344143e+00 0 0 0
966 1 1.7828942855149754e+00 6.8205450571612802e-01 3.0121029610677699e+00 0 0 0
1134 1 2.3320942049116726e+00 1.6822536015880272e+00 3.0128929659154600e+00 0 0 1
1040 1 3.0876949775149303e+00 1.4951350680210072e+00 1.8847173666421384e+00 0 0 0
1358 1 2.7517259803871288e+00 7.6090562131333606e-01 2.5614553592347105e+00 0 1 1
1621 1 6.9510581642328706e+00 3.9737435423530076e+00 3.3166304111876288e+00 0 0 0
3878 2 3.6529154638337080e+00 8.5331578937850661e-01 2.4718410323453006e+00 0 0 1
631 1 3.2937266153323903e+00 1.3375938140030275e+00 3.2180460262296768e+00 0 0 0
3756 2 5.0191386184796229e+00 2.8391281285625869e-01 1.7293517220289762e+00 0 0 1
3798 2 9.5249465242963414e+00 3.5929473640576792e-01 3.5837575993245743e+00 0 1 0
575 1 4.4608678360569760e+00 9.7524209574225840e-01 3.0593967354999698e+00 0 0 0
722 1 4.8777744198174755e+00 1.0898615323571252e+00 1.9477728072757079e+00 0 1 0
1147 1 5.2304690110556340e+00 3.7693164214492231e-01 2.6969596296814355e+00 0 0 1
1351 1 5.8898593877643144e+00 4.8460328544672571e-01 1.9478391256408774e+00 0 1 0
4177 2 3.9631795974396251e+00 1.4621826962131919e+00 4.7844983021692782e+00 0 1 0
2538 1 8.9844595234977529e+00 7.9450175195415773e-01 9.7420779451336670e-01 0 0 0
1457 1 8.9053158035874525e+00 3.7234101993428665e+00 3.4437908768133432e+00 0 0 0
955 1 6.1031069027584852e+00 4.3701587653393155e+00 3.8089660462938895e+00 0 0 0
1562 1 5.6856122308574868e+00 4.7720575599871129e+00 1.5211476127487222e+00 0 0 1
4228 2 1.1212150372274732e+00 3.9361782068864554e-01 1.7632436656197332e+00 1 0 0
1071 1 5.7219210343941338e+00 1.2605779518771882e+00 4.7120920331318130e+00 0 0 -1
3847 2 7.9255890836445291e+00 4.4229246789468055e+00 3.2977793416729630e+00 0 0 0
543 1 8.8389287955552254e-01 2.5148799394385351e+00 4.1375321921552404e+00 0 0 0
4238 2 1.5963161035319413e+00 4.4299461224517218e+00 1.6151046689008293e+00 1 0 0
4044 2 1.0735788945335118e+01 3.9269806525091693e+00 1.4723714190220680e+00 0 1 0
2544 1 9.9846475812777395e+00 2.7840244101188905e+00 4.6220888820200718e+00 0 0 0
1689 1 8.6532985834459666e+00 2.0359978620462664e+00 4.6290540293889215e+00 0 0 0
1376 1 1.5276243461268457e+00 2.3660196710691994e+00 2.4720678645767729e+00 0 1 0
3606 2 1.5811237622552992e+00 3.2756160477127887e+00 2.2301876561921801e+00 0 0 0
2941 1 2.4332087348414251e+00 3.2454920646172560e+00 2.4282166650220187e+00 1 0 0
3608 2 2.3008112879706548e+00 2.5509476135710298e+00 2.8963322206659550e+00 0 0 0
3128 1 1.6519657604361511e+00 3.2483693832357070e+00 3.1032125703016344e+00 1 0 0
555 1 2.4793027708584949e+00 2.2390768427638013e+00 2.0695865208590014e+00 0 0 0
505 1 3.7276298516677993e+00 2.5179031886983387e+00 1.5587749306179171e+00 0 0 0
663 1 3.1579471717515517e+00 2.4040743419163650e+00 2.8027968452246741e+00 0 0 0
3686 2 3.1970459239875293e+00 3.0673838273996288e+00 2.1204934195732288e+00 0 1 0
1446 1 4.1897253227974538e+00 2.8133766321453155e+00 2.5083431445465441e+00 0 0 0
568 1 4.0436105044286421e+00 1.6340249508610314e+00 2.3789941282621920e+00 0 0 0
3703 2 4.4270592955729198e+00 3.0760884963628552e+00 1.7289984630353521e+00 0 0 0
3533 2 5.1972692815366557e+00 1.3363669821523749e+00 2.7226489155052560e+00 0 1 0
1462 1 4.7622106188018734e+00 2.2426812050278175e+00 1.7473080693014236e+00 0 0 0
1511 1 4.9907653360924158e+00 2.2258103060102652e+00 2.7902960741853287e+00 0 0 0
1561 1 5.6640949550226445e+00 2.7952783026522874e+00 2.1291783784455678e+00 0 0 0
2197 1 6.0161751951713223e+00 1.0731288470784452e+00 2.8086504549100146e+00 0 1 0
566 1 5.7319004514541074e+00 1.5977565776700624e+00 1.9355642601617593e+00 0 0 0
1437 1 6.5912034367873495e+00 2.3139492772993693e+00 2.0410796470437731e+00 0 0 0
2101 1 6.7402022958724341e+00 1.1978635886178530e+00 2.0353658694469976e+00 0 0 1
3946 2 6.6370201396138953e+00 1.7061834906263094e+00 2.7689014731998132e+00 0 1 0
1721 1 6.0297430485623842e+00 2.2187208889393646e+00 2.9440301630752952e+00 0 1 0
2421 1 7.0140149149593540e+00 2.2770551975035662e+00 3.2072611053100779e+00 0 0 0
2689 1 8.3014788779906823e+00 9.4440315099164218e-01 2.7543112410367434e+00 0 0 0
4214 2 6.7663866113327620e-01 1.9513388245455838e+00 2.5736952165853477e+00 1 0 0
1191 1 4.4720900187643977e+00 4.4459645556155127e+00 3.7797741708660118e+00 0 0 0
1696 1 6.8073847393572802e+00 3.7812853274518385e+00 4.3841406203708972e+00 0 0 0
1489 1 9.3470312654325127e+00 1.1383500488467642e+00 3.1320033137982080e+00 0 0 0
2037 1 6.1554585241298465e+00 4.4703159118442644e+00 2.6534188064067479e+00 0 0 0
1031 1 1.0772372004086600e+01 4.1686398869262975e+00 5.8767338884150322e-01 0 0 0
2112 1 9.9541340438122763e+00 4.3312106610635643e+00 1.4046944600954914e+00 0 0 0
1588 1 8.6769163935072999e+00 4.6493083469621661e+00 3.8909598062783579e+00 0 0 0
2141 1 7.3863262025620049e+00 4.3845094058319045e+00 8.8818581042624489e-01 0 0 1
242 1 2.5104883590418128e+00 1.4916730733822570e-01 8.8565918651859199e-01 0 0 1
2592 1 1.0397874311085818e+01 4.5311033958925018e+00 4.4639758264200431e+00 0 0 0
1039 1 2.9429963525848306e+00 4.1946110128292826e+00 2.0808876253929625e+00 0 0 0
3482 2 7.6512639243411646e+00 4.1309790774035839e+00 9.7985477881062294e-02 0 0 1
3619 2 2.4232894188764424e+00 3.8121598509465318e+00 3.0469620437001312e+00 0 0 1
586 1 1.7291029805211331e+00 4.1213647640049365e+00 2.5209133856625683e+00 0 0 0
2132 1 8.6289420881423169e+00 8.6351221097026143e-02 3.7529582177500354e+00 0 0 0
1682 1 6.4039954620878161e+00 3.0128540221734692e+00 3.6513751466117972e+00 0 0 0
1440 1 3.3369858320870236e+00 3.5790728712698807e+00 2.9139202454595292e+00 0 0 0
664 1 3.8812058029614604e+00 3.6590326030611986e+00 1.9510169911795152e+00 0 0 0
550 1 3.6602957484832785e+00 4.5671566056714141e+00 3.0499787442621638e+00 0 0 0
655 1 4.5704018881436514e+00 4.4867709411919332e+00 2.4406324887853206e+00 0 0 1
994 1 4.3661233313012300e+00 3.6139599772247513e+00 3.1441863298537740e+00 0 0 0
1428 1 5.8244834676036845e+00 3.7201898437294671e+00 1.7280605230525301e+00 0 0 0
1613 1 8.9654630990920445e+00 3.8567615106698310e+00 4.5151965588493210e+00 0 0 0
534 1 5.4852202738677782e+00 3.1303531215394265e+00 3.1143812718230950e+00 0 0 0
1271 1 4.9178574758848246e+00 3.5078112261084180e+00 2.2962080470477924e+00 0 1 0
1474 1 9.6530121720190287e+00 4.3668173766425440e+00 3.0575650501324416e+00 0 0 0
3838 2 6.0948967997445136e+00 3.7932088043690566e+00 3.1840844035911142e+00 0 0 0
3127 1 2.4218475664395234e+00 4.0933976041143749e+00 3.8907036790945337e+00 1 0 0
1072 1 7.5364855729043176e+00 3.0315133586203737e+00 2.1518757111738855e+00 0 0 0
1535 1 6.5257100921042763e+00 3.2667584202777817e+00 2.5620077438876168e+00 0 0 0
3964 2 7.2538530931829648e+00 3.1429025555823360e+00 3.0234635696772276e+00 0 1 0
1858 1 7.1002253403135036e+00 1.0742480983515859e+00 4.5320832158748328e+00 0 1 0
1988 1 1.0044549044968562e+01 1.9257490598979363e+00 1.6903750950406156e+00 0 0 0
2076 1 7.3269923104059345e+00 1.1614149439827692e+00 2.9178385517302448e+00 0 0 1
2850 1 9.3322005263133505e+00 1.1567438543090718e+00 2.0138878427169820e+00 0 1 0
2171 1 1.0518909746253946e+01 3.5543493658903111e+00 3.2123880396731241e+00 0 0 0
1607 1 8.4463376187810546e+00 4.3880262671282368e+00 5.1074904534482890e-01 0 0 1
599 1 2.0781699054552814e+00 4.2997193591524607e-01 4.0501550874289087e+00 0 0 0
4129 2 9.6604447119582790e+00 3.4988343023425066e+00 2.9901513389763790e+00 1 0 1
1519 1 8.0659628728760335e+00 7.0310473203114163e-02 2.1307594548582753e+00 0 0 0
4133 2 9.5108790212986278e+00 4.5289046127978887e+00 4.5272246524865967e+00 0 0 0
2631 1 9.7127227396216540e+00 2.0752614351290988e+00 2.6745471098129037e+00 0 0 0
548 1 4.9346222649663387e+00 2.9020924222560045e+00 4.7055406917633418e+00 0 0 0
1880 1 7.9202982898624503e+00 3.6688636947386262e+00 2.9862071041451839e+00 0 0 0
1584 1 5.6829331472970213e-01 1.4583101115773298e+00 4.0115736996860010e+00 0 0 0
3464 2 1.4540473570231567e+00 9.3693397873933015e-01 3.7565640877445508e+00 0 0 -1
652 1 1.5992095101559516e+00 1.6444816480369893e+00 4.3925284443673149e+00 0 0 0
1622 1 7.4230182836774325e+00 3.1236079128921324e+00 3.8912096322328247e+00 0 0 0
991 1 6.9010378435823325e+00 2.6775940746256943e-01 2.3972303754959010e+00 0 0 0
4264 2 2.5436677496742819e+00 8.6572383784948748e-01 3.3771252289856157e+00 1 0 1
1054 1 3.0970798911793009e+00 5.6332417673406976e-01 3.9872665380820949e+00 0 0 0
481 1 2.5490185946321064e+00 1.4994532091298496e+00 4.0836965536449110e+00 0 0 0
235 1 4.0331564304767271e+00 1.0703547390009400e+00 3.9637810019697013e+00 0 0 0
887 1 1.0101605246532763e+00 5.2683228408605587e-01 4.3613819904367110e+00 0 1 0
3856 2 4.7829406482240344e+00 3.0004484294462008e-01 3.5704469168433794e+00 0 0 0
2360 1 4.9503510584878976e+00 7.1371539838538467e-01 4.2901650904855400e+00 0 1 0
1066 1 9.8212140463536137e+00 2.3167660941137642e+00 7.7981846926567933e-01 0 0 0
3587 2 6.9348519860348397e+00 4.0672673860259856e+00 2.3406473845750186e+00 0 0 0
1950 1 6.8384316716665614e+00 5.5936691719204046e-01 3.6487363143274170e+00 0 0 0
4029 2 6.3116576537692293e+00 6.9115612708958507e-01 4.3539794225337412e+00 0 1 0
580 1 5.8024472328217103e+00 4.6863117862656495e-01 3.6633382319035999e+00 0 0 0
1493 1 9.9649713242193734e+00 9.2129020342520451e-01 3.9935369934021985e+00 0 0 0
1538 1 7.6970267306608724e+00 1.4161791130795770e-01 3.1703321196617207e+00 0 0 0
1425 1 7.8867761376964047e+00 2.1929953275337306e+00 3.9195885794860326e+00 0 1 0
4296 2 6.6025723296760015e+00 4.6264611407992460e+00 4.4855576018889369e+00 1 0 0
1242 1 3.8927813324365026e+00 1.5468301273335190e+00 2.1294411006943187e-01 0 1 0
906 1 7.6159343314789405e+00 1.9503150565497254e+00 2.2114537024116245e+00 0 1 0
4042 2 2.1921829405718016e+00 9.8044004846697508e-01 4.7394357729272993e+00 0 1 0
3772 2 1.3379707739736413e+00 6.0227378850961633e-01 3.4535763727045593e-01 0 1 1
1536 1 6.7744006885894503e+00 4.7172833561784344e+00 1.7477796279512099e+00 0 0 0
1022 1 2.4828420333429322e+00 4.6838461637713449e+00 3.0539516043849639e+00 0 0 -1
2854 1 8.8974475761735956e+00 1.0589907356568826e+00 4.0854734984359347e+00 0 1 0
1357 1 4.2451387653722863e+00 2.0231960032235191e-01 2.3103730640529365e+00 0 1 1
1441 1 9.3176585141539867e+00 1.5704148340621107e+00 2.3283852185897580e-01 0 0 0
577 1 2.1405730378771848e+00 1.8415786586248986e-01 2.0178991502629016e+00 0 0 0
3492 2 3.1249839974561522e-01 4.8046924627066290e-01 2.5770539432266197e+00 0 0 0
1165 1 1.8502575993036090e+00 2.3664421483846523e+00 3.6882117107561436e+00 0 0 0
802 1 1.7155750871453310e+00 3.2391309948018594e+00 4.1510192592540038e+00 0 1 0
572 1 2.6335792612366560e+00 3.1095926007245507e+00 3.5278308972828838e+00 0 0 0
1167 1 2.5673080880020707e+00 2.5458978807013302e+00 4.4994789123382590e+00 0 0 0
1117 1 3.6972753403622822e+00 3.9070808905099881e+00 6.7733923039468347e-02 0 0 1
3719 2 2.6371428704106243e+00 3.4078925114866618e+00 4.3841397361569125e+00 0 0 -1
4119 2 2.7842618335358762e+00 2.2847302348147940e+00 3.6513147980872258e+00 0 0 0
1007 1 3.4878391965375477e+00 1.9908844135991155e+00 4.2592090443266439e+00 0 0 0
2164 1 3.6946158086186833e+00 2.8784816642979205e+00 3.6527974292120091e+00 0 0 1
3884 2 4.0994757753573028e+00 2.6202477864786204e+00 4.3513714458559036e+00 0 0 1
1062 1 4.0819602854992727e+00 1.9412233140664921e+00 3.3757085113258252e+00 0 0 0
1194 1 5.2552901954428783e+00 1.5256814901518077e+00 3.5840987599297525e+00 0 1 0
814 1 4.6123116546935128e+00 1.8992371107232824e+00 4.2904189061735405e+00 0 1 0
1081 1 4.7161369707758132e+00 2.7692515548826422e+00 3.7097098576896852e+00 0 0 1
860 1 5.7296417436801788e+00 2.2006348940771954e+00 4.2226802585455232e+00 0 1 1
3460 2 7.9699124380794579e+00 1.7777166287312691e+00 3.0720764712767075e+00 -1 0 0
2250 1 7.8928748700147313e+00 1.0966109122753989e+00 3.7962709888851411e+00 0 1 0
2098 1 5.7631841651090978e+00 3.3618914191099694e+00 2.7628844074147829e-01 0 0 1
1573 1 6.3414154050604585e+00 1.4603923770943383e+00 3.6597295947495088e+00 0 0 0
537 1 6.7452571107649160e+00 2.0759737863082677e+00 4.4204965432747176e+00 0 0 0
508 1 5.2643072285946655e+00 4.1627959724114705e+00 3.1351075526079701e+00 0 0 0
964 1 9.3330858132734846e+00 2.7197926985650822e+00 1.8549968635766052e+00 0 0 0
2063 1 9.0579534564079793e+00 2.8757139891790695e+00 2.8699944228744818e+00 0 0 0
124 1 4.2453865409796752e+00 3.5459434060009096e+00 4.3575137834577236e+00 0 0 0
137 1 4.7920347299366117e-01 8.6125748973172689e-01 1.1950419067685079e-01 0 0 1
1505 1 3.3913155077992707e+00 3.8997718637350349e+00 3.8530052453348000e+00 0 0 0
1359 1 6.4948108741899286e+00 7.8553418287081311e-01 4.7007237520575934e-01 0 1 1
4281 2 9.3916266138980937e+00 7.6543897913853143e-01 1.2406102146320086e-01 0 1 0
2108 1 6.1474339838203012e+00 2.9959755660913290e+00 4.7673384496331623e+00 0 0 0
513 1 3.8912146050184662e+00 4.5287450275191796e+00 4.7341498408090059e+00 0 0 0
3040 1 2.8741560363533081e+00 4.6507152448118996e+00 1.6756398041461629e-01 1 0 0
50 1 4.0137483979363946e+00 4.7228448819105502e+00 1.5293143062367487e+00 0 0 0
1098 1 7.1370564622559227e+00 1.5903882308880692e+00 3.1437314955348511e-01 0 0 1
2462 1 1.1017743970652093e+01 4.8135650275908954e+00 1.5227974465461831e+00 0 0 0
3867 2 8.3130997081030173e+00 4.5188663965570273e+00 4.6824694096195074e+00 0 0 0
1463 1 7.1395397685736244e+00 4.8200734545814710e+00 3.8508439578414082e+00 0 0 0
3565 2 7.5710842409740344e+00 3.5778403228760656e+00 4.7284482808748782e+00 0 0 0
875 1 2.6781939955218359e-01 4.6048242996844731e-04 1.8790927397878745e+00 0 1 1
2100 1 9.3169573735750379e+00 3.6260915015488129e+00 6.1004283848236414e+00 0 0 0
1626 1 6.0407094280607669e+00 1.3796405167315384e-01 8.9964316427606850e+00 0 0 0
617 1 5.4952258473186841e+00 4.2808680715640364e+00 8.0410825670157369e+00 0 0 0
1171 1 8.1345247765507782e+00 2.5474327775026731e+00 5.5768911030360480e+00 0 0 0
1069 1 2.1656211990413121e+00 1.7267578774760717e+00 5.2973730917598019e+00 0 0 0
1082 1 1.0018037142927550e+01 2.9765077497884769e+00 5.7084008183722208e+00 0 0 0
3584 2 1.0937736683037764e+00 1.4853495011682685e+00 9.3103954457020599e+00 0 0 0
2038 1 1.0359566926545869e+01 3.9547745382408852e+00 5.9374292771790662e+00 0 0 0
4220 2 7.7785547780321842e+00 8.4031634709914205e-01 7.3393171741480892e+00 0 0 -1
3728 2 9.0360693405048735e+00 2.7965999373436414e+00 7.8816647557455903e+00 0 0 0
1628 1 7.8279090671770968e+00 3.8397594973230196e+00 8.0496061870590285e+00 0 0 0
706 1 6.9839141654133874e-01 1.4163280159563576e+00 6.0262926946872541e+00 0 0 0
4302 2 1.2156086167580002e+00 3.2270210620682027e+00 5.9024528032887495e+00 1 1 0
3513 2 1.4045900735633201e+00 1.9060751616169154e+00 5.6278829007256963e+00 0 0 0
842 1 1.3822730045604787e+00 1.0369086120656976e+00 5.2239770573664073e+00 0 1 0
913 1 1.7373491429336951e+00 1.4326716563630024e+00 6.2638123889786357e+00 0 1 0
517 1 4.3999304853399943e+00 4.5494915452977267e+00 9.2861164379055623e+00 0 0 0
1904 1 7.5262533674183567e+00 1.3812767862761726e+00 5.7799599558709573e+00 0 1 0
3611 2 3.3293815158093207e+00 5.8328466679220559e-01 5.4280901017944148e+00 0 0 1
3752 2 3.0520852981934921e+00 1.4752672720928695e+00 5.6733815648204731e+00 0 0 0
526 1 2.4410557046317325e+00 8.3558236563183730e-01 5.5880530637753010e+00 0 0 -1
1080 1 3.1327176341297607e+00 9.4707761555433756e-01 6.3871246992422543e+00 0 0 0
1514 1 5.8565680270688230e+00 2.6326674248248279e+00 9.1101874582873794e+00 0 0 -1
1128 1 3.8647954761005914e+00 1.2474318845775456e+00 5.6444859089761339e+00 0 0 1
1557 1 8.8504380193506371e+00 3.6717704853996480e+00 8.2859440147079475e+00 0 0 0
2053 1 8.2599040985139958e+00 1.7934647066189562e+00 6.5520139558227619e+00 0 0 0
1683 1 4.8182713899031198e+00 6.1904174146870417e-01 6.1742337188066596e+00 0 0 0
1199 1 4.7607780306784058e+00 1.3064765148723947e+00 5.1226818702558123e+00 0 1 0
3749 2 7.5840187455968788e+00 3.0916697457015694e+00 8.3623617610548422e+00 0 0 0
4122 2 5.4231775962090127e+00 6.4390325350151967e-01 5.2657887816699018e+00 0 0 0
1349 1 5.9060257983288285e+00 2.2275933500665104e-01 5.9175525058289313e+00 0 1 0
889 1 6.4637607542644160e+00 7.0108558141681032e-01 5.2190545664079302e+00 0 1 0
1021 1 7.5641424298429305e+00 2.5883592957395547e+00 9.3087491138909133e+00 0 0 0
1654 1 6.6473716190057193e+00 8.4180838443356731e-01 6.2970069391886065e+00 0 0 0
970 1 4.8894810882977522e+00 4.1577653591173833e+00 4.9265551965493479e+00 0 0 0
975 1 8.1447439917854982e+00 1.0623211018783159e+00 4.8927429712145010e+00 0 0 0
3718 2 8.8111653682971411e+00 2.7918941962339050e-01 8.7884567236172959e+00 -1 0 -1
2612 1 9.8522990184155272e+00 1.4345385632716992e+00 8.5476708169088766e+00 0 0 0
4312 2 1.0612426299622484e+00 3.0438275739621989e+00 9.3959301602592564e+00 1 1 0
1566 1 5.9217322016241347e+00 3.3652742158096864e+00 8.2990062298466754e+00 0 0 0
2619 1 9.8903386462706244e+00 4.1173076257410504e+00 6.9398635722028406e+00 0 0 0
3518 2 3.1571324058701862e+00 1.9282155759973688e-01 6.8397793861535767e+00 0 1 0
3893 2 9.7005585479178364e+00 4.4418215952665436e+00 6.1172290116573764e+00 0 0 1
3975 2 1.0426531546820906e+01 3.6072114338978953e+00 7.2424687258266456e+00 0 0 -1
3761 2 6.3017350295667267e+00 4.5009133796519052e+00 6.9020153054308384e+00 0 0 0
4175 2 8.5917739228792378e+00 8.2730443114347935e-02 7.5972571767707384e+00 0 1 0
1180 1 1.8689772941810032e+00 2.5069192322878484e+00 6.0754804842286996e+00 0 0 0
1482 1 2.4408526756215929e+00 3.2643604220890352e+00 5.2609122570765443e+00 0 0 0
370 1 1.7691237048536892e+00 4.9873313437272448e-01 8.1184114308677113e+00 0 1 0
675 1 1.9586125357271218e+00 3.5149456805908201e+00 6.2230865613115105e+00 0 0 0
676 1 1.4743572392119151e+00 3.6846120969015113e+00 5.2483804128934590e+00 0 0 0
1114 1 3.0376070828970896e+00 2.2494135170130822e+00 5.3710882310198507e+00 0 0 0
1187 1 3.7266546242739254e+00 2.2212448145600057e+00 6.1460075473854152e+00 0 0 0
659 1 2.8216746086522115e+00 2.9622176850069257e+00 6.2256118623295533e+00 0 0 0
3713 2 3.4763948332505592e+00 2.9589977038654398e+00 5.6474455864574979e+00 0 0 0
698 1 2.6563290613029942e+00 1.9360570559244776e+00 6.2967084250589274e+00 0 0 0
1177 1 4.1311205927546482e+00 2.3848996909841484e+00 5.1829924009990798e+00 0 0 0
1853 1 4.6844337830923894e+00 1.7478598520405628e+00 6.0850669452572275e+00 0 1 1
3123 1 4.7087690010771563e+00 2.7788706113794723e+00 6.0188575058780778e+00 1 0 0
3577 2 5.6048612233933106e+00 2.2253105104009312e+00 6.1917391484835580e+00 0 0 -1
1676 1 5.4151601699525260e+00 2.2535350440312327e+00 5.3672272204196760e+00 0 0 0
1647 1 5.7280907888619943e+00 1.2519327198109278e+00 5.8949523848638856e+00 0 0 0
3707 2 6.1438163264493060e+00 9.9082371947261816e-01 9.2753610158049273e+00 0 0 -1
1438 1 8.2923523871093234e+00 4.2017673091440750e+00 9.0314215493841505e+00 0 0 -1
1153 1 6.3977345364625346e+00 1.9872683467884964e+00 6.5743175806746423e+00 0 0 0
1578 1 1.0527291453673239e+01 4.3343901657582613e+00 7.7951941127776916e+00 0 0 0
998 1 7.1696718271439002e+00 4.2502309214177139e+00 6.5862407928005746e+00 0 0 0
231 1 5.4006642084259973e+00 4.5775365495917058e+00 6.8218485274341498e+00 0 0 0
2610 1 8.8924638797355406e+00 1.9787180872760515e+00 8.2793844299887542e+00 0 0 0
1688 1 8.2232096090023674e+00 3.8044139979411669e+00 5.2332218089272091e+00 0 0 0
2106 1 6.8529105849158034e+00 4.3847787314733759e+00 9.5572781713968524e+00 0 0 0
2123 1 8.3156028353811671e+00 6.5638854377197775e-01 5.8401349900851125e+00 0 0 0
1087 1 9.0729750412693786e+00 4.7044044009807058e+00 8.3630712707434665e+00 0 0 0
3441 1 1.5462436280129388e-01 2.4301401746015888e-01 4.8706324777388588e+00 1 1 0
1115 1 7.5934190063130371e+00 3.3689240230906123e+00 5.9835358111144865e+00 0 0 0
601 1 2.2595121315582283e+00 4.3363387221655811e+00 5.6837075945460063e+00 0 0 0
1093 1 3.2191379316859696e+00 3.8966456967761580e+00 5.9091802984084962e+00 0 0 0
4130 2 7.7270696107121797e+00 4.3657782725976162e+00 7.3069372867646072e+00 0 0 -1
2088 1 4.1048840916263529e+00 3.5059526199924131e+00 5.4310858153852735e+00 0 0 0
127 1 3.8559628498842589e+00 3.2786880491201620e+00 6.4300748437189377e+00 0 0 0
784 1 6.8797359947620524e+00 5.4795229702174753e-01 7.3051255968967288e+00 0 1 0
1085 1 5.3933653196433156e+00 3.3978924425191241e+00 5.5249965881287997e+00 0 0 0
3016 1 4.7673230466793477e+00 3.7931368382045676e+00 6.3231559753201561e+00 1 0 0
1184 1 6.0938439222815850e+00 3.9069468135023251e+00 6.2416313060268411e+00 0 0 0
1030 1 6.2422455305324664e+00 2.8046868122826725e+00 5.8092760203664833e+00 0 0 0
1504 1 6.8663826069437581e+00 3.7950977360748883e+00 5.4341523075402343e+00 0 0 0
2071 1 7.7636667874150422e+00 3.5560629285178584e+00 7.0387429387267373e+00 0 0 0
2115 1 9.3666073827680503e+00 1.2007966571642747e-01 8.0029576608202841e+00 0 0 0
4030 2 8.5231959630558229e+00 3.3094644616381514e+00 5.9435278543244108e+00 0 0 0
1129 1 9.7710948512856319e+00 2.3081893702037055e+00 7.8590624915090830e+00 0 0 0
1086 1 8.4316345743146588e+00 2.8452606826814977e+00 8.7080028876251312e+00 0 0 0
1095 1 7.3725438880013892e+00 1.0881432390777592e+00 8.1976927696508586e+00 0 0 0
914 1 2.4157367897086806e+00 3.3258116133455762e-01 9.0849007584397192e+00 0 1 0
662 1 4.2536628796514577e+00 4.7424328413514329e+00 7.5369549470497228e+00 0 0 0