LAMMPS data file via write_data, version 12 Dec 2018, timestep = 576840

4320 atoms
2 atom types

0.0000000000000000e+00 1.9309999999999999e+01 xlo xhi
0.0000000000000000e+00 1.9309999999999999e+01 ylo yhi
0.0000000000000000e+00 9.6549999999999994e+00 zlo zhi
8.4384699999999970e+00 0.0000000000000000e+00 0.0000000000000000e+00 xy xz yz

Masses

1 1
2 1

Atoms # atomic

4263 2 4.9138550510880652e+00 4.4142696954665990e+00 2.1671338201322392e+00 1 0 0
1071 1 5.4185474525535771e+00 1.2439989014867512e+00 4.6953557903196250e+00 0 0 -1
1433 1 8.2554449226727034e+00 4.0959397145956888e+00 1.5674562069645113e+00 0 0 0
2159 1 8.5470318060601667e+00 2.8426701697695860e+00 4.0447605867299874e+00 0 0 0
1684 1 9.6405640053828758e+00 2.8184831401176025e+00 2.4319047918943446e+00 0 0 0
1502 1 7.2165573828547904e+00 4.1416560356095715e+00 1.9856943604203747e+00 0 0 0
2034 1 1.0546068285398400e+01 2.5514429103593335e+00 3.9833511609091454e+00 0 0 0
628 1 5.5309666458737849e+00 4.1641869706718699e+00 4.7514068560608642e+00 0 0 0
1979 1 8.1958005111564791e+00 1.8291785188682199e+00 2.5255091369567273e+00 0 0 0
2386 1 9.7272850901159060e+00 8.9701270076553541e-01 1.5167965616459367e+00 0 1 1
253 1 1.0279464113232015e+00 1.0087718274125304e+00 1.2964992026101076e+00 0 1 0
1190 1 1.7090428868112477e+00 1.7641134218726644e+00 1.1267163576082628e+00 0 0 1
3918 2 1.5229610725789793e+00 1.8760072078018879e+00 2.4513853808831815e-01 0 1 0
30 1 4.9564201105523029e+00 3.7225823249389922e+00 3.9222582312827212e+00 0 0 0
1127 1 1.7262577141107851e+00 1.0411461266510891e+00 2.6569536662031412e-01 0 0 1
1554 1 2.5708771253824381e+00 1.2553949998745504e+00 9.1388204955467189e-01 0 0 1
4116 2 2.0143815403307674e+00 1.0748770169335131e+00 1.5954459943227393e+00 1 0 -1
95 1 2.9594781838438444e+00 5.2144491512251379e-01 1.6654961531965946e+00 0 0 0
2167 1 1.0388931451335418e+01 3.5852894008122655e+00 4.3080378943504583e+00 0 0 0
2275 1 9.5217543860342708e+00 3.2281716411569463e+00 1.4913924986644842e+00 0 1 0
870 1 3.4879542348947443e+00 1.5602151448074413e+00 1.3864277785086432e+00 0 1 1
1798 1 3.9969861829511379e+00 6.0668451010495739e-01 1.0150119660829944e+00 0 1 0
3867 2 7.9976685534986061e+00 4.3829473715097755e+00 4.8061870994483211e+00 0 0 0
1711 1 7.8726697617916033e+00 2.2505315033012612e+00 6.2878016735144637e-01 0 1 0
1615 1 4.9800097226877824e+00 9.9862895523836948e-01 1.0742221324534875e+00 0 0 1
1678 1 7.6309555713917732e+00 2.5480222805501782e+00 3.0160405617842776e+00 0 0 1
987 1 4.3947659002415635e+00 1.5542845934256613e+00 3.3199226377202784e-01 0 0 0
4228 2 4.2500399646080178e-01 2.8085983803074654e-01 1.8859206192234090e+00 1 0 0
2444 1 9.7439304624761309e+00 3.3183665182744576e-01 5.7700233728677586e-01 0 0 0
3468 2 5.8141481114952906e+00 8.8182499389229108e-01 1.2793349220333534e+00 -1 0 1
2012 1 8.7680232154140469e+00 4.7673725880475137e+00 2.1181707724999264e+00 0 0 0
1470 1 7.7156728613404226e+00 2.3436118295379904e+00 1.6506430725492447e+00 0 0 0
56 1 2.3618533745078318e+00 1.8443373199086308e+00 4.5329655243341482e-02 0 0 0
2131 1 1.0291794199441572e+01 4.4742985301903868e+00 3.3315097314364910e+00 0 0 0
1441 1 8.5647296329234646e+00 1.4859205439410854e+00 2.0941273347723544e-01 0 0 0
2081 1 9.2541379983945902e+00 1.7064520261458374e+00 4.1635065818633610e+00 0 0 0
2460 1 9.3678876208533151e+00 3.6153932320454811e+00 3.9180019416899308e+00 0 0 0
3590 2 4.8857589672325314e+00 4.5966896859668687e+00 3.9778667314207277e+00 0 0 -1
1160 1 7.0385444109962663e+00 5.3224494787091947e-01 1.5921535679940273e+00 0 0 0
1505 1 3.0438721631574914e+00 3.8737415698702611e+00 3.9557613364481696e+00 0 0 0
1570 1 1.0473153357935145e+01 2.9303337666190594e+00 1.0809867641787501e+00 0 0 1
4056 2 1.0320755240790854e+01 2.4669912437485433e+00 3.1084649307895797e+00 0 0 0
34 1 1.7379377348378400e+00 2.6684333958931110e+00 4.7768358451555498e-01 0 0 0
3775 2 5.8221965196222447e+00 2.7162947570436669e-01 3.0796917394329828e+00 0 1 0
968 1 2.9485983624066181e+00 2.4255123669261649e+00 6.4862348220634258e-01 0 0 1
3708 2 2.5844947844599204e+00 2.0628639262133635e+00 1.2885448770282093e+00 0 0 0
1166 1 2.4229891719219880e+00 3.0351768134415331e+00 1.2785416454404230e+00 0 0 1
3768 2 2.8558370438738088e+00 3.2510418533077217e+00 4.5671476545870948e-01 0 1 0
3676 2 7.2156498930391484e+00 7.2444617358447694e-01 2.4685164115075984e+00 0 1 1
3757 2 4.3381409283713914e+00 1.5856674299483760e+00 1.1830197777348754e+00 0 0 1
1764 1 3.9832533010368572e+00 2.3605762862499149e+00 8.5969911629293783e-01 0 1 0
1617 1 5.0918636372656660e+00 2.1234446620296392e+00 9.6501719723542645e-01 0 0 1
2174 1 3.0153188277657592e+00 3.0959597608001138e-01 6.7598449350522638e-01 0 1 0
1499 1 6.0435442486276347e+00 1.6903219638279401e+00 7.9066774618130553e-01 0 0 1
1544 1 7.7141609315928124e+00 1.0066736523752715e+00 7.4545019699984683e-01 0 0 0
1946 1 8.8508348244198221e+00 3.5906023191680361e+00 2.3407779878823867e+00 0 0 0
1965 1 7.8734941114583519e+00 1.0241366928041209e+00 1.8679382675332741e+00 0 0 0
1145 1 7.5415846000280755e+00 3.9405765887939879e+00 4.0644958194485730e+00 0 0 0
50 1 3.4803797570471877e+00 4.7006443184188562e+00 1.7386692406776660e+00 0 0 0
4242 2 8.2514065313574303e+00 3.2282555963903092e-01 2.2747151207988039e+00 0 0 1
2048 1 9.8889754601426603e+00 3.9944353742626326e+00 2.4584415100523698e+00 0 0 0
887 1 5.6180837408770423e-01 5.3604887619667252e-01 4.3635483610041899e+00 0 1 0
2084 1 7.8746096612282832e+00 3.2603373271796943e+00 2.3332053144804274e-01 0 0 1
1513 1 5.9133746079501091e+00 4.0249121248850388e+00 8.1158359456760043e-01 0 0 0
952 1 7.0204741974245524e+00 1.5664622652944740e+00 1.3490263449320303e+00 0 0 0
656 1 2.0992849424583286e+00 3.6795792679556918e+00 4.9369501805558086e-01 0 0 1
1526 1 3.1062528946826147e+00 3.0370873956172888e+00 4.6781089973365546e+00 0 0 0
1562 1 5.2980072870281703e+00 4.7895918839197904e+00 1.4269594660919689e+00 0 0 1
1536 1 6.3117135354801421e+00 4.6720409515994437e+00 1.7005682679422085e+00 0 0 0
2132 1 8.0390377164335671e+00 4.3060250651622292e-02 3.7928339103823214e+00 0 0 0
2201 1 7.4112869204288740e+00 3.4175019352540965e+00 1.2068939514767205e+00 0 1 0
1472 1 7.9148294032963511e+00 3.2923818299691709e+00 2.2111971354708055e+00 0 0 0
1019 1 3.5821467604246244e+00 3.2719342532610769e+00 1.0082471156525383e+00 0 0 0
1198 1 2.8482244879418968e+00 4.0453976166801002e+00 1.1874123766292686e+00 0 1 0
3627 2 3.7406549055773457e+00 4.2928653227032783e+00 8.5787416112367698e-01 0 0 1
1870 1 6.6507344334668117e+00 8.1622028490534315e-01 6.5607502450673527e-01 0 1 1
3503 2 6.7628207545348573e+00 1.5542338790844017e+00 4.0159903152171079e+00 -1 0 2
567 1 4.6974543492729399e+00 3.0776366356457534e+00 1.2049684207971685e+00 0 0 0
669 1 4.3572780661918324e+00 4.1299372844251918e+00 1.4928195461303650e+00 0 0 1
3865 2 5.0463700328299943e+00 3.9135120332459650e+00 8.3963067719310469e-01 0 0 0
1051 1 4.3110997397500768e+00 3.7073475678829499e+00 4.4523215264589466e-01 0 0 0
1783 1 3.0817353068620421e+00 2.3364572814476409e-01 2.6941445556787444e+00 0 1 0
2555 1 1.0087387211336805e+01 1.9699301689997277e+00 4.7142374691103281e+00 0 0 0
3771 2 7.7468473829180073e+00 3.1528456596584693e+00 3.6476221518960905e+00 0 1 -1
503 1 6.7481227343035171e+00 2.5060354417873199e+00 9.2149943377216503e-01 0 0 0
1506 1 5.7643263574945163e+00 2.9254416862158306e+00 1.1592055145831577e+00 0 0 0
1564 1 6.7193783270684255e+00 3.4644531274051777e+00 4.3002699846566789e-01 0 0 1
1572 1 6.4156761385104062e+00 3.5893924000379234e+00 1.6091474912147290e+00 0 0 1
1671 1 8.3812369634238379e+00 3.1175637847018027e+00 1.1832557491546356e+00 0 0 1
835 1 2.3352348066768058e-01 7.6242972443147122e-02 9.6786652080187641e-01 0 1 0
2006 1 9.0423100882852747e+00 3.8368816352846435e+00 6.7805718950592542e-01 0 0 0
4006 2 1.0249030264638529e+01 2.8428277530394417e+00 4.7608047024282323e+00 0 0 0
2145 1 8.3027165827870775e+00 1.8750332845231388e+00 3.5738902773538435e+00 0 0 0
2468 1 8.4771449791556037e+00 1.6930566109737584e+00 1.2880604559741375e+00 0 0 0
970 1 4.4612689976617954e+00 4.2580028054855834e+00 4.7122265037674103e+00 0 0 0
3695 2 1.0374958103513887e+00 1.5353785170508699e-01 1.1470196781029800e+00 0 0 -1
2649 1 9.5551329547006301e+00 2.6505384025799752e+00 3.5167716869988368e+00 0 0 0
1463 1 6.8339533932732675e+00 4.6930414109622500e+00 3.9074566769584420e+00 0 0 0
2440 1 1.1648259536281701e+01 4.7703856317856221e+00 1.6128720504236820e+00 0 0 0
1137 1 8.0098527844732743e+00 4.3675140472264200e+00 2.6945945976716246e+00 0 0 1
2513 1 8.0341628338407265e+00 8.2796473748207214e-02 1.4030194723613678e+00 0 0 0
159 1 1.4688960828041120e+00 1.4066432441041357e+00 2.1675010212088233e+00 0 0 0
1485 1 8.7691720645780222e+00 1.2550275699659477e-01 2.9377213238666453e+00 0 0 0
966 1 1.3458001928413079e+00 7.0078896436649740e-01 2.9642122219079559e+00 0 0 0
1134 1 2.0298419259533409e+00 1.7449533501245265e+00 3.0290520353522341e+00 0 0 1
1040 1 2.6725638028687899e+00 1.5259749634554776e+00 1.9901281623519884e+00 0 0 0
1358 1 2.2042582224344667e+00 7.5988416778944357e-01 2.4706977918261814e+00 0 1 1
1621 1 6.4999979351744805e+00 3.9269761244323105e+00 3.3408077527485354e+00 0 0 0
3878 2 3.3530833439510168e+00 1.0419687170557561e+00 2.2070897068608213e+00 0 0 1
631 1 2.9405184649921718e+00 1.3663028147353342e+00 3.1841683326930403e+00 0 0 0
3756 2 4.6248668648599658e+00 3.8216996877195125e-01 1.6410598420748952e+00 0 0 1
1858 1 6.4879466090115496e+00 1.1614289354816607e+00 4.7648671542419816e+00 0 1 0
575 1 3.9540963172435775e+00 9.2005767003121763e-01 3.0046062589601736e+00 0 0 0
722 1 4.3959674083584028e+00 1.1495579565762377e+00 1.9338247959759254e+00 0 1 0
1147 1 4.8546119663929064e+00 4.1631177479004589e-01 2.8152561219386008e+00 0 0 1
1351 1 5.4415356122708021e+00 4.6175249757980324e-01 1.9736331603745620e+00 0 1 0
1103 1 7.1715548413062660e+00 1.6082035071228062e-01 4.5116840757843635e+00 0 0 0
2538 1 8.7821204669413131e+00 7.3137264992112616e-01 1.1540928320768280e+00 0 0 0
1457 1 8.3930394507088497e+00 3.6316994349478344e+00 3.3839903230381405e+00 0 0 0
955 1 5.8016999678230103e+00 4.5127428392640523e+00 3.8217806266314103e+00 0 0 0
2515 1 1.0356500844789895e+01 1.8612818241168310e+00 1.1351356993248827e+00 0 0 0
971 1 8.6357531453073975e+00 2.6230286017835716e+00 5.8267540946082719e-02 0 0 0
1983 1 1.0082147512298043e+01 1.7185935037287128e+00 3.4022170270911749e+00 0 0 0
3847 2 7.3226659447961193e+00 4.3774093208374651e+00 3.2860221652693302e+00 0 0 0
1359 1 5.6883293462439894e+00 8.8609781980947600e-01 2.3288880574811552e-01 0 1 1
2171 1 1.0264464486636204e+01 3.3649406946124585e+00 3.2356694404718134e+00 0 0 0
4044 2 1.0281865515868315e+01 3.7245128696632177e+00 1.6954202165680090e+00 0 1 0
2544 1 9.4269692416080169e+00 2.7664205463875406e+00 4.5576918451831396e+00 0 0 0
4281 2 9.1027687790190939e+00 7.6032909958926698e-01 2.2505149080139292e-01 0 1 0
744 1 4.4897194305135280e+00 4.7255151400033100e+00 6.2377742850774376e-01 0 1 0
513 1 3.4835448026960014e+00 4.5578998632174237e+00 4.7247321657514512e+00 0 0 0
2941 1 2.0444716414252979e+00 3.2830428177991631e+00 2.3754617278362171e+00 1 0 0
3608 2 1.9184183234234573e+00 2.5761254266655587e+00 2.9594487761500576e+00 0 0 0
1065 1 1.3407998156395713e+00 2.9048114507252616e+00 1.4933965873891377e+00 0 0 0
555 1 2.1414096859770479e+00 2.3269691837648159e+00 1.9280635053058821e+00 0 0 0
505 1 3.2287421213480698e+00 2.5405975193705830e+00 1.7166879580192009e+00 0 0 0
663 1 2.7825612597063758e+00 2.4396834145662325e+00 2.7432281190834837e+00 0 0 0
3686 2 2.7658238672661533e+00 3.4110782517448803e+00 2.0021003802627395e+00 0 1 0
1446 1 3.8096998378481590e+00 2.7831573979959376e+00 2.6116422881585408e+00 0 0 0
568 1 3.6805315189675998e+00 1.7775814091354889e+00 2.4908292149580276e+00 0 0 0
3703 2 4.0250183384181293e+00 3.0201059280739466e+00 1.6928913933203014e+00 0 0 0
3533 2 4.8142909295272753e+00 1.3014985113871769e+00 2.7179651336314867e+00 0 1 0
1462 1 4.2424931248162254e+00 2.2241855641017421e+00 1.8416742270652535e+00 0 0 0
1511 1 4.6270907839759507e+00 2.1217022889799582e+00 2.8696784689402035e+00 0 0 0
1561 1 5.1623596979959423e+00 2.6766809727830885e+00 2.0889067285152088e+00 0 0 0
2197 1 5.6326927616841811e+00 1.0893354992462982e+00 2.8222022349167903e+00 0 1 0
566 1 5.3555267063073906e+00 1.6186156568690104e+00 2.0164906654509553e+00 0 0 0
1437 1 6.2011880745683632e+00 2.2821978505744007e+00 1.8978143795185543e+00 0 0 0
2101 1 6.2692252111530262e+00 1.1282664673564566e+00 1.9663275528200579e+00 0 0 1
3946 2 6.2092856399186358e+00 1.7003324319533286e+00 2.6100498461805355e+00 0 1 0
1721 1 5.6657021447550306e+00 2.2526039144266532e+00 2.9269548257295637e+00 0 1 0
2421 1 6.6067981745457320e+00 2.1665049335576940e+00 3.2289758139075802e+00 0 0 0
2689 1 7.9958885778089952e+00 8.8758389946708127e-01 2.9516681598119709e+00 0 0 0
1376 1 1.2794324777464254e+00 2.4459861425163818e+00 2.4776335118847519e+00 0 1 0
1191 1 4.0370599946171701e+00 4.5503846669127874e+00 3.6425074019732415e+00 0 0 0
1696 1 6.4359579166842273e+00 3.7056686218169701e+00 4.4069510304434107e+00 0 0 0
1489 1 9.1137549819375430e+00 1.0562504496116945e+00 3.3873059211470982e+00 0 0 0
2037 1 5.8329841785609648e+00 4.3233841730117328e+00 2.6111782054256798e+00 0 0 0
1031 1 1.0243072854946909e+01 3.9127077094843332e+00 7.7199791636114046e-01 0 0 0
2112 1 9.5090835071382340e+00 4.2852734515979574e+00 1.5311202036567648e+00 0 0 0
1588 1 8.3241063286564660e+00 4.6229672839453624e+00 3.7646157613216240e+00 0 0 0
2141 1 6.9226986278404059e+00 4.3576707454651231e+00 8.7702593331850454e-01 0 0 1
242 1 1.9114742080060592e+00 3.6279089638352713e-01 1.1201041726346765e+00 0 0 1
2592 1 9.9020377764941507e+00 4.5770233982501676e+00 4.4304355078380135e+00 0 0 0
1039 1 2.4787414278503963e+00 4.2433356812973964e+00 2.1748022076378049e+00 0 0 0
1527 1 9.5881947496863091e+00 3.0632849443845940e+00 2.9833445383939083e-01 0 0 0
3619 2 2.0108692281483056e+00 3.9194595825837357e+00 2.9975730767659781e+00 0 0 1
4296 2 6.2870859981853409e+00 4.5599565613829105e+00 4.5859700230179907e+00 1 0 0
1076 1 9.5365637773659930e+00 1.4006331404854344e+00 5.9981623897701675e-01 0 0 0
1682 1 5.9900355553682427e+00 3.0283346006002358e+00 3.5898340673483147e+00 0 0 0
1440 1 2.8983093033511542e+00 3.6111153289075544e+00 2.8352122140285436e+00 0 0 0
664 1 3.5559659921594315e+00 3.6910705990526487e+00 1.9460616044636148e+00 0 0 0
550 1 3.2199078982512486e+00 4.5846139627712503e+00 2.9684531939415559e+00 0 0 0
655 1 4.1443952065903105e+00 4.6010988628015603e+00 2.5261743809449113e+00 0 0 1
994 1 3.9355938058773337e+00 3.6967343113258226e+00 3.1028732848530645e+00 0 0 0
1428 1 5.3375884695945919e+00 3.7542796065486637e+00 1.6898545726622589e+00 0 0 0
1613 1 8.4907331197165519e+00 3.8056268103540947e+00 4.4985357167038673e+00 0 0 0
534 1 5.1324613721217567e+00 3.1695875544829781e+00 3.0534652752109182e+00 0 0 0
1271 1 4.5413523631540196e+00 3.5416315275862096e+00 2.3117767226946566e+00 0 1 0
1474 1 9.1018519272041782e+00 4.3079291794832324e+00 3.1392190532498923e+00 0 0 0
3838 2 5.6488966784912069e+00 3.8081321599769695e+00 3.3084932937876270e+00 0 0 0
3127 1 2.0540405621246705e+00 4.1310254414174903e+00 4.0078160875302702e+00 1 0 0
1072 1 6.9748310270172436e+00 2.9003542967928877e+00 2.2965250596053179e+00 0 0 0
1535 1 5.9980184637988554e+00 3.2488713403451919e+00 2.4987766073295918e+00 0 0 0
3964 2 6.6754428582431800e+00 3.0133194250548847e+00 3.0779878487470209e+00 0 1 0
3040 1 2.4121265460084733e+00 4.6135512237907292e+00 2.0348179857638068e-01 1 0 0
1988 1 9.4895842605636300e+00 1.8440411647069637e+00 1.7279271066567954e+00 0 0 0
2076 1 6.6677074309934801e+00 1.1395123507801801e+00 2.9838690697183901e+00 0 0 1
2850 1 8.8808129662821642e+00 9.9660534280173618e-01 2.3205434746116338e+00 0 1 0
2642 1 1.0348550465490870e+01 2.0665744802419632e+00 2.3985314849731143e+00 0 0 0
1607 1 7.9853557752607598e+00 4.2644078289582170e+00 6.0722625572690625e-01 0 0 1
599 1 1.5702211572689477e+00 6.3590024128629241e-01 3.9432571757233954e+00 0 0 0
4129 2 9.4274731647884895e+00 3.4634174056550751e+00 3.0400690150339211e+00 1 0 1
1122 1 8.3264640380128103e+00 2.8654113493516525e-01 2.8591130936829962e-01 0 0 0
3730 2 1.0050415667477983e+01 2.4968012826050519e+00 1.6672937468749010e+00 0 0 -1
2631 1 9.3187089890561605e+00 1.8858397363392949e+00 2.7760042141276355e+00 0 0 0
1098 1 6.9947531599468622e+00 1.6868738969014072e+00 1.6006619684274775e-01 0 0 1
1880 1 7.3399845911125459e+00 3.5733977347770258e+00 3.0202417559385029e+00 0 0 0
4132 2 1.1219766211967782e+01 4.5458029000522053e+00 3.1330805362115264e+00 0 0 0
3464 2 1.4755664065055740e+00 1.5119207746046379e+00 3.5472811883132560e+00 0 0 -1
652 1 1.0844142120101248e+00 1.5059151999594518e+00 4.2790677136747641e+00 0 0 0
1622 1 6.9822181841059274e+00 3.0394787127960670e+00 3.8471598323770531e+00 0 0 0
991 1 6.3351700494216932e+00 1.7512586763240826e-01 2.4704235350028463e+00 0 0 0
4264 2 2.1819261993545087e+00 9.2337871937638927e-01 3.3345019788466490e+00 1 0 1
1054 1 2.6990919301662051e+00 5.6773541221746937e-01 3.9362134454532720e+00 0 0 0
481 1 2.1534553435743460e+00 1.5023778006823860e+00 4.1418777968107152e+00 0 0 0
235 1 3.5807947298516121e+00 1.0415787452202059e+00 4.0524337576563392e+00 0 0 0
2035 1 1.1238579676096684e+01 3.7393841459148525e+00 3.5685281171100338e+00 0 0 0
3856 2 4.4669033789832264e+00 3.8457645540463359e-01 3.6259053522238776e+00 0 0 0
2360 1 4.4957791316859961e+00 6.3875633483081307e-01 4.4336188543896284e+00 0 1 0
1066 1 9.2230862343410873e+00 2.3597735495798129e+00 8.9711216665058258e-01 0 0 0
3587 2 6.6249166819926035e+00 3.8380059346821809e+00 2.4981770001646155e+00 0 0 0
1950 1 6.4965560280746235e+00 5.7885465735200459e-01 3.8573512686832085e+00 0 0 0
4029 2 5.9119512609460205e+00 5.4292480491289075e-01 4.4785090709680553e+00 0 1 0
580 1 5.3872743517619801e+00 5.4402827702263523e-01 3.8316019522775653e+00 0 0 0
1439 1 1.0659050538137986e+01 2.9621156774838622e+00 2.0608072910636452e+00 0 0 0
386 1 3.5932401601516943e+00 5.8450947689725204e-02 3.6083231083973644e+00 0 1 0
1425 1 7.4237704855732174e+00 2.0976992876129019e+00 4.0165532154311689e+00 0 1 0
2506 1 1.0859430944202648e+01 3.8443512900876766e+00 2.5643890219270853e+00 0 0 0
1242 1 3.4012999638694259e+00 1.4854636201948848e+00 3.3921023064860367e-01 0 1 0
906 1 7.1320543850356595e+00 1.8266699703800764e+00 2.3556258686604368e+00 0 1 0
3121 1 7.6478849002645948e+00 2.9671279431992157e+00 4.5849721458674315e+00 0 0 0
3772 2 8.5450931592812962e-01 7.5726614634281597e-01 4.8527086801153968e-01 0 1 1
1973 1 1.1072832261586017e+01 3.8449112695733896e+00 1.5140940200365867e+00 0 0 0
548 1 4.6306484737334479e+00 2.9874217013104500e+00 4.6235041030348611e+00 0 0 0
2854 1 8.4098618910767762e+00 1.1050661490217331e+00 4.2639541422090605e+00 0 1 0
1357 1 3.9788525606264975e+00 2.4311538587581810e-01 2.1529633988437604e+00 0 1 1
2646 1 9.9516353724969964e+00 1.0327230336100930e+00 2.6004378208344816e+00 0 0 1
3601 2 1.0117841341153960e+01 2.3868244361481499e+00 4.7343052028125937e-01 -1 0 1
1117 1 3.3115619442146826e+00 3.9167034744600335e+00 1.0847724340040611e-01 0 0 1
1165 1 1.4111403632473285e+00 2.3607319476410225e+00 3.6471655846003523e+00 0 0 0
4133 2 9.0946896094302083e+00 4.3982028041067105e+00 4.2946456063172045e+00 0 0 0
572 1 2.2410292372533047e+00 3.1485673905095646e+00 3.5246253652058739e+00 0 0 0
1167 1 2.2071106503784605e+00 2.5042312265759326e+00 4.4327258675059920e+00 0 0 0
2108 1 5.6818804938361342e+00 3.0131831451227602e+00 4.7429401842133512e+00 0 0 0
3719 2 2.3219668090328467e+00 3.4117717010868018e+00 4.3551863658393639e+00 0 0 -1
4119 2 2.6289849632946920e+00 2.2292723071689200e+00 3.5778902353177084e+00 0 0 0
1007 1 3.1715626713042724e+00 2.0368644481382199e+00 4.2759931044736765e+00 0 0 0
2164 1 3.2897139811538816e+00 2.9168923406301666e+00 3.6114866855588876e+00 0 0 1
3884 2 3.8538506870947624e+00 2.7117213570989254e+00 4.3071182373969217e+00 0 0 1
1062 1 3.7639575173092750e+00 1.9550730712835493e+00 3.4868482244524741e+00 0 0 0
1194 1 4.7645938806579338e+00 1.2549537188339637e+00 3.5627845141471819e+00 0 1 0
814 1 4.3138407898537086e+00 1.8313456615681662e+00 4.3601726012753588e+00 0 1 0
1081 1 4.2933614978901948e+00 2.8825412485637369e+00 3.5617436287800146e+00 0 0 1
860 1 5.2192869594557010e+00 2.2856883879202647e+00 3.8182633843900651e+00 0 1 1
3460 2 7.5006238936789247e+00 1.5677992743272109e+00 3.1460638432161963e+00 -1 0 0
2250 1 7.4278501259808110e+00 1.0140598258898537e+00 3.8429491817499937e+00 0 1 0
2098 1 5.2942834435086130e+00 3.2520918317782916e+00 3.5314758158489012e-01 0 0 1
1573 1 5.9673629449637726e+00 1.4582361753459701e+00 3.7331118227373281e+00 0 0 0
537 1 6.3203918354379489e+00 2.3071824224254280e+00 4.3663663471326872e+00 0 0 0
508 1 4.9278918250929973e+00 4.2422434636134358e+00 3.0887427637745128e+00 0 0 0
964 1 8.7121902877396700e+00 2.5616086121024688e+00 1.9420845865734817e+00 0 0 0
2063 1 8.6576722847858427e+00 2.7046645195588592e+00 2.9680703934075563e+00 0 0 0
124 1 3.9238575231769648e+00 3.5916822775636721e+00 4.2151683944241602e+00 0 0 0
2667 1 1.0952952465400450e+01 4.5395252470554031e+00 4.1349087140044647e+00 0 0 0
1538 1 7.2395328897055293e+00 1.9697423060303360e-01 3.2445452638548731e+00 0 0 0
1471 1 9.1039886468374700e+00 3.1550130298060114e-01 4.1621876458353420e+00 0 0 0
2462 1 1.0488243632645279e+01 4.7919712860741495e+00 1.5073369609100782e+00 0 0 0
1029 1 4.7159949184383922e+00 4.3102627718412212e-01 1.2853854298785469e-01 0 0 0
767 1 6.0269879887026159e+00 8.4138377971962636e-02 1.1167555178894994e+00 0 1 0
3051 1 1.1152023419521054e+01 4.8032235861019252e+00 6.7971757986441039e-01 0 0 0
1488 1 5.2579710544596718e+00 4.2643910295356697e+00 6.5450514620068026e-02 0 0 0
1001 1 6.0991640242592071e+00 2.5801045474509268e+00 9.8225956929801975e-03 0 0 0
3482 2 7.2503466443911204e+00 4.1091403639101500e+00 1.3547130446468458e-01 0 0 1
577 1 1.3106456580058037e+00 3.3775663933048883e-01 2.0044120723814203e+00 0 0 0
1571 1 6.7908816030225694e+00 4.7585620053650066e+00 2.6611957750128377e+00 0 0 0
668 1 1.7998842049492847e+00 3.8253756043429630e+00 1.4851772259765630e+00 0 0 0
1689 1 8.2478019804594407e+00 2.0497516255992290e+00 4.7362324538155498e+00 0 0 0
802 1 1.4239392767364845e+00 3.2478183244777590e+00 4.2156597790867227e+00 0 1 0
4042 2 1.8182761271308578e+00 9.3684613079320178e-01 4.7289732487546940e+00 0 1 0
817 1 4.9261138647856062e-01 1.0745249740163743e+00 2.2839467904630650e+00 0 1 0
992 1 7.1571451154201737e-01 1.5854969003596939e+00 3.1703695005078432e+00 0 0 0
3030 1 1.1208427231859609e+01 3.5584445213798683e+00 5.3724917863607080e-01 0 0 0
1286 1 2.1807134151306622e+00 4.8425343652252172e-02 3.2384641346647909e+00 0 1 0
1050 1 4.5245119473709172e+00 2.6113787751374331e+00 4.9358240046035225e-03 0 0 0
733 1 3.5613000184975223e+00 2.9435883595266890e+00 6.1033159185811675e-03 0 1 0
2100 1 8.9622146330270720e+00 3.5125454189739829e+00 6.1003336035556757e+00 0 0 0
3391 1 9.4514723740218223e+00 8.0971508128873648e-01 6.9807352885205747e+00 0 1 0
617 1 5.0707467936133614e+00 4.3895007375742008e+00 8.0428327995320039e+00 0 0 0
1171 1 7.8265138211879970e+00 2.3634068255439717e+00 5.6822832119783584e+00 0 0 0
1069 1 1.7700167790497940e+00 1.7722055746476701e+00 5.1292570681115057e+00 0 0 0
1082 1 9.7303915505565204e+00 2.8430989519758807e+00 5.6544733859313965e+00 0 0 0
1090 1 3.4781150454017480e+00 4.7321537437112843e-01 4.9217160314622319e+00 0 0 0
2038 1 9.9665655603614240e+00 3.8623590964917485e+00 6.0576241376306088e+00 0 0 0
4220 2 7.2688165033909176e+00 9.5007373672578899e-01 7.3781446877406971e+00 0 0 -1
3728 2 8.7038542672216490e+00 2.8552236555541968e+00 8.0286793887105414e+00 0 0 0
1628 1 7.3760591468923771e+00 3.8806719651714694e+00 8.1503914271741174e+00 0 0 0
2622 1 1.0505239123236393e+01 3.4493555948501253e+00 9.3979421436704165e+00 0 0 0
2165 1 9.6644066680790317e+00 1.9987758200951176e+00 6.4337102512284714e+00 0 0 0
3513 2 9.4889099539545296e-01 1.8625370044130691e+00 5.5625335062984345e+00 0 0 0
842 1 9.2163865551358071e-01 1.0446761126013979e+00 5.2810045270603299e+00 0 1 0
913 1 1.4957721745321422e+00 1.3759997369138919e+00 6.1228155968383069e+00 0 1 0
517 1 4.0534441275979436e+00 4.4300469869936627e+00 9.2826643395894699e+00 0 0 0
1904 1 6.8768823318078365e+00 1.2873981942686654e+00 5.7695280383553573e+00 0 1 0
3611 2 2.8272603818240860e+00 6.1517222801363636e-01 5.5581435759450217e+00 0 0 1
3752 2 2.4064105445595900e+00 1.4531704729697190e+00 5.6498435600496677e+00 0 0 0
526 1 1.9604080342338959e+00 7.3423483137895185e-01 5.5715748960865605e+00 0 0 -1
1080 1 2.6837258849890309e+00 8.4623270326825695e-01 6.3613118929501180e+00 0 0 0
1514 1 5.3363563379285548e+00 2.7412647200453244e+00 8.9002018071337670e+00 0 0 -1
1128 1 3.3620806155209442e+00 1.3529286614575744e+00 5.6969329621343041e+00 0 0 1
1557 1 8.3628774873756822e+00 3.7333565619613593e+00 8.2735526339284267e+00 0 0 0
2053 1 7.6737662359849441e+00 1.6005255943795413e+00 6.4271114130768376e+00 0 0 0
1683 1 4.4611690245483064e+00 7.2668628094156518e-01 6.1958125346248689e+00 0 0 0
1199 1 4.3364698332238873e+00 1.2268420005925518e+00 5.2590040927704580e+00 0 1 0
3749 2 7.2023145716048251e+00 3.0618316411953441e+00 8.2883949439537119e+00 0 0 0
4122 2 4.9446399061201358e+00 5.9006131934876227e-01 5.2701560953489919e+00 0 0 0
1655 1 8.8960606450920992e+00 4.6495402310604685e+00 9.5332114151455301e+00 0 0 0
889 1 5.8156293466614235e+00 4.8514173204111793e-01 5.3435170490771586e+00 0 1 0
1021 1 7.1352049075479860e+00 2.6841361207686791e+00 9.4580588507890919e+00 0 0 0
1654 1 6.0869809521238984e+00 8.0210807234467363e-01 6.3059245623392055e+00 0 0 0
2364 1 9.5906543917680072e+00 1.0788844210870010e+00 5.9858388697811042e+00 0 1 0
1626 1 5.5089896250394599e+00 2.8294060677150346e-01 9.0378375014472532e+00 0 0 0
2106 1 6.4300677712396404e+00 4.4339122622311082e+00 9.5905305568742083e+00 0 0 0
2612 1 9.2850318969689489e+00 1.9481068744137764e+00 8.3860806294511789e+00 0 0 0
4175 2 8.1309963897711572e+00 4.0546035701661182e-01 7.8028124837193280e+00 0 1 0
1566 1 5.5952684228788900e+00 3.5398676179861748e+00 8.2885818936007833e+00 0 0 0
2619 1 9.3055681655929678e+00 4.0811693867664589e+00 6.8889325231348577e+00 0 0 0
2528 1 1.1081084503819557e+01 3.8639869677712624e+00 8.5989906432588388e+00 0 0 -1
4123 2 1.0285166651990830e+01 2.5904875559817615e+00 6.3229065532167326e+00 0 0 -1
3975 2 1.0014838003220413e+01 3.7456572537365829e+00 7.3213728837351137e+00 0 0 -1
3761 2 5.9503544342961865e+00 4.4167841558883492e+00 6.9193754777687841e+00 0 0 0
1569 1 4.6651776846962303e+00 1.4866909802791847e-01 7.0336993278995266e+00 0 0 0
1180 1 1.5387638697101711e+00 2.4898687341378487e+00 6.0578004966492838e+00 0 0 0
1482 1 2.0997080717457104e+00 3.1865585595483066e+00 5.2011971289887233e+00 0 0 0
370 1 1.2229033187581180e+00 6.5319325954155960e-01 8.2135265035944549e+00 0 1 0
1349 1 5.2462066136509256e+00 1.4664883989142544e-02 6.1159363173280674e+00 0 1 0
1627 1 7.0048071480280774e+00 2.7636973849956248e-01 7.8942543964188170e+00 0 0 0
1114 1 2.7659251453010025e+00 2.2381875990323796e+00 5.3096317829889816e+00 0 0 0
1187 1 3.4210950558229731e+00 2.2553370239524360e+00 6.1819631840194722e+00 0 0 0
659 1 2.5892976893564970e+00 2.9492706253602390e+00 6.1309058844404474e+00 0 0 0
3713 2 3.3010090172731488e+00 2.9143205314519878e+00 5.6305598040499012e+00 0 0 0
698 1 2.3585734964906804e+00 1.9050181158143156e+00 6.4163405172634036e+00 0 0 0
1177 1 3.8512781160127272e+00 2.3100199048812162e+00 5.1924835042663835e+00 0 0 0
1853 1 4.2816207893205167e+00 1.7350113668147649e+00 6.2186421027176220e+00 0 1 1
3123 1 4.4376889875360011e+00 2.7867887753997067e+00 6.0016330911770384e+00 1 0 0
3577 2 5.0427142367606326e+00 2.1697241336034092e+00 6.2215821203569917e+00 0 0 -1
1676 1 5.0260477292831487e+00 2.1918583599090082e+00 5.2463465040187467e+00 0 0 0
1647 1 5.2957597389728610e+00 1.3016128676610246e+00 5.7539155269967601e+00 0 0 0
4297 2 2.0820740905587520e+00 2.1065860789738172e-01 8.2133707539306080e+00 1 1 1
1438 1 7.8924226416587651e+00 4.2290195886553903e+00 9.1222554315592372e+00 0 0 -1
1153 1 5.8084619472171317e+00 1.8734524140113960e+00 6.4953999920377372e+00 0 0 0
1578 1 1.0002553450263672e+01 4.4095251662061834e+00 7.9203465432584093e+00 0 0 0
998 1 6.7912799485915469e+00 4.2161943954929191e+00 6.6712546769765133e+00 0 0 0
231 1 4.9133671487424690e+00 4.6704280749826994e+00 6.9506821063419935e+00 0 0 0
2610 1 8.2622529759894423e+00 2.0894739015186872e+00 8.2462136971576285e+00 0 0 0
1688 1 7.7927958813631060e+00 3.6802925861731328e+00 5.3590199195545214e+00 0 0 0
2433 1 1.0636320577524538e+01 3.2906051286086506e+00 5.4646499679129485e+00 0 0 0
2123 1 7.6999241598183250e+00 5.8111613222928626e-01 5.9294780278336079e+00 0 0 0
3609 2 7.8374659709926462e+00 4.5851099361980596e+00 8.2812815696706679e+00 0 0 0
3670 2 1.2341202097024822e+00 4.1037387874866704e-01 7.3943746633527345e+00 0 1 0
1115 1 7.1525918158191413e+00 3.4574239043653403e+00 6.0905153294221002e+00 0 0 0
1614 1 3.8886984083846525e+00 8.9308797504105114e-02 7.9803126893764631e+00 0 0 0
1093 1 2.9914247150590629e+00 3.9112323012183845e+00 5.8599722947623647e+00 0 0 0
4130 2 7.3209489011754680e+00 4.3143383786223408e+00 7.3952249855854451e+00 0 0 -1
2088 1 3.9383137503854755e+00 3.5105685730467546e+00 5.3405068863998464e+00 0 0 0
127 1 3.5785596579600139e+00 3.2706511057810803e+00 6.4837482602091114e+00 0 0 0
784 1 6.2379467979566590e+00 5.4572317200027687e-01 7.2727408855832731e+00 0 1 0
1085 1 4.9435791192123437e+00 3.5477140683794590e+00 5.4544492254402641e+00 0 0 0
3016 1 4.4505261590439105e+00 3.9233701161662990e+00 6.3471819203918391e+00 1 0 0
1184 1 5.5526595474742884e+00 3.9505967835552167e+00 6.3090699020155006e+00 0 0 0
1030 1 5.7721697668365941e+00 2.8005105349620054e+00 5.8756992672445190e+00 0 0 0
1504 1 6.2080026418602303e+00 3.7798087405193299e+00 5.5366960674494852e+00 0 0 0