LAMMPS data file via write_data, version 12 Dec 2018, timestep = 110880

4320 atoms
2 atom types

0.0000000000000000e+00 1.9309999999999999e+01 xlo xhi
0.0000000000000000e+00 1.9309999999999999e+01 ylo yhi
0.0000000000000000e+00 9.6549999999999994e+00 zlo zhi
1.6220399999999984e+00 0.0000000000000000e+00 0.0000000000000000e+00 xy xz yz

Masses

1 1
2 1

Atoms # atomic

1098 1 9.1779946267073989e+00 2.3930872492380275e+00 1.3264943639213592e-01 0 0 1
570 1 1.5180425600587546e+00 4.3207144702649899e-02 2.9590157782530304e+00 0 0 0
2946 1 9.6482088103718429e+00 4.9207622242808491e-01 8.9105589156712051e-01 0 0 0
1218 1 1.2126532124831872e+00 8.3608020156775464e-01 1.0657431227233427e+00 0 1 0
3622 2 1.9334713155895289e+00 9.5234432697204274e-01 6.6321563098895464e-01 0 0 1
1785 1 8.2909663413857402e+00 3.1403471764348995e-01 2.1474898670652842e+00 0 1 0
967 1 1.2962986183786416e+00 1.7380574349078859e+00 4.3419060550688532e-01 0 0 0
3205 1 2.2098043061550365e+00 1.8862839132982507e+00 9.0933810691988670e-01 1 1 0
4110 2 2.3317095366311125e-01 4.0726583701346625e-01 3.8102848338129509e+00 1 0 0
851 1 2.8662334507729752e+00 1.0507250620291759e+00 5.7310122457391255e-01 0 1 0
253 1 3.4653610259074261e+00 4.5164478053426754e-01 1.2658861233490959e+00 0 1 0
1190 1 3.8827624121137174e+00 1.5454001516958380e+00 1.1119811317292883e+00 0 0 1
3918 2 3.6330356828496768e+00 1.5475143253212742e+00 2.7863579932006854e-01 0 1 0
30 1 6.9335126014861839e+00 4.0111943692383933e+00 3.9978944528172202e+00 0 0 0
1127 1 3.8208383287128354e+00 6.3241725115653413e-01 2.5403675729716441e-01 0 0 1
1554 1 4.7847130705748633e+00 1.1122207398220900e+00 8.1992412993136488e-01 0 0 1
4116 2 4.3164710689055914e+00 8.2851230915561247e-01 1.5066070936104077e+00 1 0 -1
95 1 5.3168668598592301e+00 5.1546507126766472e-01 1.5628191058946115e+00 0 0 0
2174 1 5.6046769078822836e+00 5.0786594757183967e-01 5.7953658350582749e-01 0 1 0
2064 1 1.8435805447461970e+00 2.5125753379540892e+00 1.1326009488881580e-01 1 0 1
870 1 5.7594856493036222e+00 1.4386848168814239e+00 1.2589475002382338e+00 0 1 1
1798 1 6.6015528544460871e+00 9.1067268388167211e-01 8.7258570751048015e-01 0 1 0
1073 1 7.6945100543306131e+00 9.0104644428230213e-02 2.9428776981948590e+00 0 0 0
1090 1 5.9214908771227224e+00 5.2308634016086830e-01 4.6987807864102420e+00 0 0 0
1615 1 7.4858508142128901e+00 1.4952310932239072e+00 1.1635932828515063e+00 0 0 1
1678 1 9.8167693705865489e+00 3.5063793528500433e+00 3.0030172415629686e+00 0 0 1
3793 2 8.1436440851823182e+00 3.5872516389267600e-01 2.3203972267567946e-01 0 1 0
767 1 8.6328528427537048e+00 3.9135666493273547e-01 1.1196744461184791e+00 0 1 0
1359 1 8.3181514554382101e+00 1.1613155183137311e+00 5.2623872467756494e-01 0 1 1
3468 2 8.7279552637935538e+00 1.6867646893224419e+00 1.0504168860209400e+00 -1 0 1
465 1 3.2914518494118705e-01 1.9676581680821121e+00 7.6676133468617880e-01 0 1 1
1470 1 9.7373368862317999e+00 3.2523117993925910e+00 1.5087506900246075e+00 0 0 0
3587 2 8.3215728114849803e+00 4.6576781930788886e+00 2.3920826302743214e+00 0 0 0
708 1 7.6175325752394674e-01 2.8638742325002680e+00 1.5278971434194575e+00 0 0 1
115 1 2.3790150493470263e+00 3.3912124600053989e-01 1.1540374268029761e+00 0 0 0
3478 2 1.0973905298391837e+00 2.6448668880693780e+00 7.2008683835722720e-01 0 0 -1
254 1 1.7587698650037591e+00 2.7434444295918015e+00 1.2298738210242899e+00 0 1 0
2960 1 1.0911698566610994e+00 1.8755186913517512e+00 1.5362067226415341e+00 1 0 0
1160 1 9.3938395337010991e+00 1.2811985851803249e+00 1.5756611770886455e+00 0 0 0
3599 2 2.2127113585019069e+00 3.3037809919145631e+00 7.5987377074734364e-01 0 0 0
622 1 2.8059357166522552e+00 2.7812187245698903e+00 6.6571180668390362e-01 0 0 1
3750 2 3.0414546166086796e+00 1.9440681310192343e+00 8.5786612187942957e-01 0 0 1
34 1 3.8403863703983192e+00 2.4014570066521244e+00 4.8442079279706590e-01 0 0 0
1065 1 3.3058632691003247e+00 2.5308945292512646e+00 1.5784413819931939e+00 0 0 0
968 1 4.9646406738731281e+00 2.3314136284109543e+00 6.0347325935093976e-01 0 0 1
3708 2 4.6567005310356402e+00 1.9329881023427071e+00 1.2613105704629497e+00 0 0 0
1166 1 4.4988961460573869e+00 3.0101489745599590e+00 1.3238421232948245e+00 0 0 1
3768 2 4.7770880978910704e+00 3.1627352800958568e+00 4.3935843443114730e-01 0 1 0
3676 2 9.6017631219383688e+00 1.6395353382372984e+00 2.4043414189421517e+00 0 1 1
3757 2 6.6356861956499795e+00 1.8004497066001974e+00 1.0908929782271164e+00 0 0 1
1764 1 6.0091441079068231e+00 2.3959770041214434e+00 7.8739470814595547e-01 0 1 0
1617 1 7.2278561377172732e+00 2.4318902312676083e+00 8.5733590697405304e-01 0 0 1
3925 2 4.3076890385572908e-01 4.3028052254544935e+00 1.7861144053780422e+00 1 1 -1
1499 1 8.1469317621810671e+00 2.1842848556739001e+00 4.0580397841048971e-01 0 0 1
1458 1 7.5480897346903895e+00 3.7436022761080723e-01 9.1998603785008326e-01 0 0 0
497 1 9.7367914104003361e-01 3.9458609639605045e+00 1.1943500285903137e+00 0 0 0
1402 1 6.6878043068106345e+00 1.1794246048332566e-01 1.4581872866474813e-01 0 1 1
1117 1 5.1262974650903654e+00 3.9249061568796626e+00 1.7428248871166985e-01 0 0 1
1783 1 5.5885102433059446e+00 1.5648015721384897e-01 2.6971801033102798e+00 0 1 0
536 1 3.0270367229911499e-01 3.4874549255819316e+00 3.2927979399169351e+00 0 0 0
3085 1 1.3860550080460130e+00 3.4411079570805767e+00 3.5224506118559729e-01 1 0 1
3799 2 1.3036203561733062e+00 4.6383725061800796e+00 6.5585141371341371e-01 0 1 0
171 1 2.0306613498877710e+00 4.1018382411033780e+00 1.0929702203471368e+00 0 0 1
1513 1 7.8447459527857832e+00 4.3622321316016430e+00 9.2893503148236700e-01 0 0 0
952 1 9.3248602312432549e+00 2.2959867541399333e+00 1.1948066431440523e+00 0 0 0
656 1 4.0212026138940864e+00 3.5065041952242724e+00 4.5514728108688191e-01 0 0 1
2996 1 3.8016558843621882e+00 4.5962148226812287e+00 1.1681325349604532e+00 1 0 0
717 1 3.1246763678037128e+00 3.8978281323232582e+00 6.8937961054597474e-01 0 0 1
4278 2 1.0190954723506642e+00 4.7374784678752908e+00 3.8556901791053879e+00 1 1 -1
668 1 3.7323129118701095e+00 3.6118575670071302e+00 1.4681567646254072e+00 0 0 0
2201 1 9.3185729622344091e+00 4.1023804929077965e+00 1.1218898953092042e+00 0 1 0
1457 1 9.9770349792035198e+00 4.5420030393006146e+00 3.5984131455536201e+00 0 0 0
1019 1 5.4823994686341671e+00 3.4147727129571188e+00 9.7240941474897846e-01 0 0 0
1198 1 4.6567058682608957e+00 4.0141595909273020e+00 1.1294499685710568e+00 0 1 0
3627 2 5.4951857219756404e+00 4.2642888927574081e+00 8.2866888421405793e-01 0 0 1
1870 1 9.3591892673639450e+00 1.4034822253924781e+00 5.3630112945232955e-01 0 1 1
3503 2 9.2158873942614630e+00 2.3021608007564285e+00 4.0602707315670514e+00 -1 0 2
567 1 6.6702995589673764e+00 3.3058289151333784e+00 1.0860951170382485e+00 0 0 0
669 1 6.3056313262456261e+00 4.1789322912602138e+00 1.3531910522503052e+00 0 0 1
3865 2 7.0528844635836370e+00 4.1907257111355776e+00 8.6934974331543036e-01 0 0 0
1051 1 6.1537003248470450e+00 3.9291973190549574e+00 3.8089946113154233e-01 0 0 0
2098 1 7.2493349746510152e+00 3.7247180423294486e+00 2.2805409645480981e-01 0 0 1
3588 2 3.0696766269745344e+00 3.5910728285070226e+00 3.7344040542438148e+00 0 0 0
1491 1 4.8798384815400082e+00 2.0732457371409554e-01 4.7223966520933311e+00 0 0 -1
503 1 8.9071792147098847e+00 3.2177709404170969e+00 7.7924476233976814e-01 0 0 0
1506 1 7.8496827996751239e+00 3.2721330372321416e+00 1.0839130917641897e+00 0 0 0
1564 1 8.6415152227545136e+00 4.0876631506069101e+00 3.1126933666823342e-01 0 0 1
1572 1 8.4756282263472240e+00 4.1474140353787341e+00 1.7276848588622025e+00 0 0 1
50 1 5.4435025984077852e+00 4.6900578025064181e+00 1.6235477183693470e+00 0 0 0
180 1 6.1136445444663812e-01 4.2246268207520190e+00 2.7034625671936802e-01 0 0 1
386 1 6.1341680348140626e+00 9.8816295018607295e-02 3.7252340294378543e+00 0 1 0
2108 1 7.7573479176990068e+00 3.4292074877473437e+00 4.6512388804510634e+00 0 0 0
140 1 8.2566418698176247e-01 7.5883910356379947e-01 2.0834324841881551e+00 0 0 0
135 1 4.3200624693310996e-01 1.7996648113826124e+00 2.5620617419936105e+00 0 0 1
520 1 1.9645328947784984e+00 1.2057971606804738e+00 1.7461127049468923e+00 0 0 0
3167 1 8.7485272054946472e-01 8.3796263424740602e-01 3.1511585883413264e+00 1 0 1
715 1 2.1588270415001629e+00 8.2008369017782801e-01 2.9417452912946462e+00 0 0 0
3772 2 3.1087820523653429e+00 1.8277773940236278e-01 4.2799785929859707e-01 0 1 1
1000 1 2.9323365641286876e+00 1.5169099500012861e+00 1.6215398516799637e+00 0 0 0
4214 2 2.5388349185392292e+00 1.4177807272211294e+00 2.3694224999786972e+00 1 0 0
817 1 2.8357797309867112e+00 5.7023039965171918e-01 2.2275161073680350e+00 0 1 0
159 1 3.7608767105258796e+00 1.0880569428096665e+00 2.1466859549500223e+00 0 0 0
992 1 3.0882472494478961e+00 1.1892362459546930e+00 3.1141486925059767e+00 0 0 0
966 1 3.7579621431740526e+00 3.5139313272137856e-01 2.9620876351424594e+00 0 0 0
1134 1 4.1684727205215637e+00 1.5660235445718198e+00 2.9926490867755011e+00 0 0 1
1040 1 4.9391512263392263e+00 1.4240791093223202e+00 1.9143154340619988e+00 0 0 0
1358 1 4.6697596727987296e+00 5.8320820754939939e-01 2.4292609837675094e+00 0 1 1
2731 1 5.0886378680282902e-02 1.7542770950347325e-01 3.0351666176604870e+00 1 1 0
3878 2 5.5316380110688961e+00 9.2049905659595777e-01 2.3564185534696374e+00 0 0 1
631 1 5.2334980390133685e+00 1.3092772657696015e+00 3.0642397732580187e+00 0 0 0
3756 2 7.4979250647655791e+00 7.9682032324026553e-01 1.7289840596123722e+00 0 0 1
1357 1 6.3167458082321177e+00 4.6868008826551777e-01 1.9617717846559639e+00 0 1 1
575 1 6.3453548387905760e+00 9.2271286451690626e-01 2.9426694404526188e+00 0 0 0
722 1 6.7369238647517617e+00 1.3487913922887749e+00 1.8375494247110191e+00 0 1 0
1147 1 7.3759550859582577e+00 9.4978859771183199e-01 2.5921137487169599e+00 0 0 1
1351 1 8.3549177457149462e+00 1.2563354358284127e+00 1.7011443294445479e+00 0 1 0
3775 2 8.2628196221980179e+00 6.8801759499847803e-01 2.8932097144558857e+00 0 1 0
1531 1 8.9838915042289393e+00 5.2624250268301409e-01 1.9094339605621170e-02 0 0 1
4240 2 3.3402702138821625e+00 4.7462483885539148e+00 4.2735632966060766e-01 1 0 0
1029 1 7.3682394082080247e+00 9.1040561108083096e-01 6.5838416183492648e-02 0 0 0
4041 2 9.3560317402292021e+00 4.4822883038466615e-01 3.3861961552211475e+00 0 1 0
1625 1 3.9568943095180371e+00 4.6237004424218142e+00 4.5134473992563215e+00 0 0 0
4049 2 7.4166851896459285e-01 2.9584043043521184e+00 2.8534903139884742e+00 1 1 1
657 1 3.9479596453804755e-01 3.2304996586846957e+00 6.5256207696502155e-01 0 0 1
431 1 1.4903576415123403e+00 1.5211820793688868e+00 2.5764770843272182e+00 0 1 1
558 1 2.3528490111036353e+00 2.1861965769275629e+00 1.9991672404856440e+00 0 0 0
2962 1 1.4091426596984320e+00 2.6175687415968505e+00 2.3235135757394265e+00 1 0 0
83 1 2.4087837488539092e+00 3.0722302260821506e+00 2.5904201142979653e+00 0 0 0
166 1 2.3529300919399012e+00 1.8600903170502774e+00 3.0514287575883188e+00 0 0 0
1376 1 3.2159411103268929e+00 2.0078002442093208e+00 2.5081732741789882e+00 0 1 0
3606 2 3.2554321192351727e+00 3.0086637314406510e+00 2.2466719806516364e+00 0 0 0
2941 1 4.1480636566699189e+00 3.1027301537598815e+00 2.3528883689933449e+00 1 0 0
3608 2 3.9177318774267009e+00 2.4426149548825422e+00 2.8142952036867004e+00 0 0 0
3128 1 3.3692448161911721e+00 3.0591931490881277e+00 3.1210720725659069e+00 1 0 0
555 1 4.1587696471460021e+00 2.1100356427159861e+00 2.0143573135076065e+00 0 0 0
505 1 5.3826020106686157e+00 2.3497166477511326e+00 1.6335196825109255e+00 0 0 0
663 1 4.8510334718080736e+00 2.3394104839874768e+00 2.7928542694866585e+00 0 0 0
3686 2 4.9862110029532953e+00 2.9668336024258770e+00 2.1163651714789533e+00 0 1 0
1446 1 5.7510863433362891e+00 2.8146886222292795e+00 2.5982702323584745e+00 0 0 0
568 1 5.8430885983573724e+00 1.7784909866141343e+00 2.3579268757586731e+00 0 0 0
3703 2 5.8587290758592898e+00 3.0321190556882520e+00 1.6596346441156535e+00 0 0 0
3533 2 6.6618818259985053e+00 1.6859142997132939e+00 2.7189442154024261e+00 0 1 0
1462 1 6.4876577761405478e+00 2.4229527782580988e+00 1.7628382402823914e+00 0 0 0
1511 1 6.7615476510447241e+00 2.5510812652522641e+00 2.7043792056986606e+00 0 0 0
1561 1 7.4972441639902359e+00 2.9781434197715431e+00 2.0148247940310515e+00 0 0 0
2197 1 8.2272428339541239e+00 1.6139148037884694e+00 2.8149947336428895e+00 0 1 0
566 1 7.5306862582423379e+00 1.9835787212964251e+00 2.1226398122465855e+00 0 0 0
1437 1 8.2437199120160756e+00 2.3829727559157057e+00 1.3611262286860686e+00 0 0 0
2101 1 8.8829503998126551e+00 2.0652652326513099e+00 2.1018996247005539e+00 0 0 1
3946 2 8.2320037973885665e+00 2.5498101480094801e+00 2.2939709579116982e+00 0 1 0
1721 1 7.8502727970965607e+00 2.6863588064349329e+00 3.0164778249153428e+00 0 1 0
2421 1 8.8872605271891789e+00 3.0646714136405246e+00 2.8456655056857820e+00 0 0 0
905 1 2.8033194134848932e-01 2.4619891680191381e+00 3.3409342847630867e+00 0 1 0
162 1 6.9280246553715763e-01 3.6416682661062145e+00 2.2888750498130852e+00 0 0 0
1191 1 5.7452806015039881e+00 4.5259611146381840e+00 3.7969882072633983e+00 0 0 0
1696 1 8.4086894431666259e+00 4.3255472787748577e+00 4.3982168032596487e+00 0 0 0
492 1 9.8309552885919738e-01 4.4697895249986148e+00 2.9698097602965943e+00 0 0 0
2976 1 1.3147006003020547e+00 4.6242006439675079e+00 1.9330465961660201e+00 1 0 0
615 1 2.6473844491911649e+00 3.4771071340594917e+00 1.6330117093081935e+00 0 0 1
3028 1 1.6903639088695539e+00 3.5676513608551383e+00 1.9946370915673106e+00 1 0 0
3610 2 1.7343496298343388e+00 4.1961876698184541e+00 2.6472267144222226e+00 0 0 0
636 1 2.3992922712214146e+00 4.4315729822537966e+00 2.0442324012711017e+00 0 0 1
2965 1 1.4722250843401563e+00 3.4218643856241910e+00 3.0291874439026176e+00 1 0 0
2545 1 3.5382893570853735e-01 3.0012806085704886e+00 4.3383313686596212e+00 1 0 0
1039 1 4.4915821705328387e+00 4.3436073592796429e+00 2.2082456530354100e+00 0 0 0
4238 2 3.1751600417091783e+00 4.2746321522001693e+00 1.6494595726953309e+00 1 0 0
3619 2 3.9895677654020671e+00 3.6078911341839124e+00 2.9874783270487026e+00 0 0 1
586 1 3.2821637326653423e+00 3.8292236625078799e+00 2.3679144072557659e+00 0 0 0
1022 1 3.7728234531956275e+00 4.5100263523803577e+00 2.9812819636029770e+00 0 0 -1
1682 1 7.9974681255491280e+00 3.6440026774150498e+00 3.5971522067363990e+00 0 0 0
1440 1 4.8885866932091124e+00 3.5513478145846049e+00 2.9578098042385870e+00 0 0 0
664 1 5.4097090779383263e+00 3.7325528812081861e+00 2.0200926627266820e+00 0 0 0
550 1 5.4114200595476092e+00 4.4837672196015044e+00 2.8326877391143368e+00 0 0 0
655 1 6.3381561819460055e+00 4.5976806975774256e+00 2.2830092583237160e+00 0 0 1
994 1 6.0961459726180474e+00 3.7195399464447316e+00 3.1059470024399722e+00 0 0 0
1428 1 7.3868254015230921e+00 4.0821758818054183e+00 1.8537899174588364e+00 0 0 0
242 1 4.5161462401181902e+00 1.2011857991387537e-01 9.1219963400025883e-01 0 0 1
534 1 7.1575134089484749e+00 3.4915223255082415e+00 2.9555792377965271e+00 0 0 0
1271 1 6.4350388083452676e+00 3.4910372668303249e+00 2.1263822835370836e+00 0 1 0
733 1 5.6409359339414582e+00 2.9385308456912536e+00 3.4406097477409261e-02 0 1 0
3838 2 7.5118857893599600e+00 4.2125119583719473e+00 3.1910080157260960e+00 0 0 0
3688 2 3.4755504618389716e+00 3.8798869556872515e+00 4.7132300515485230e+00 0 1 0
1072 1 8.7038101838254747e+00 3.1737192450587544e+00 1.8480846521004124e+00 0 0 0
1535 1 8.1290782992889330e+00 3.7251220525017614e+00 2.5744439923852793e+00 0 0 0
3964 2 9.4235315210748727e+00 3.6147662224675643e+00 2.2290750798551056e+00 0 1 0
1858 1 9.0199363388158869e+00 1.6005424577690692e+00 4.4545739607674442e+00 0 1 0
17 1 1.6227675822834797e+00 1.3768313862858800e-01 1.8807440223694407e+00 0 0 0
887 1 3.0419785893629889e+00 4.8392476519891391e-02 4.3181779541397827e+00 0 1 0
3495 2 2.2911254642803086e-01 1.9820095564072009e+00 1.6964056846147264e+00 0 0 2
689 1 8.3659083805814305e-01 7.8423039447833454e-01 4.2654284561580038e+00 0 0 0
4299 2 9.1264584305583152e-01 1.6482093459667198e+00 3.2761657977876664e+00 1 1 1
599 1 4.1010510536861071e+00 3.4108438989676465e-01 3.9927606259812123e+00 0 0 0
3121 1 9.7729459504398708e+00 4.0200836266200541e+00 4.5540593333244486e+00 0 0 0
194 1 1.7715257787158785e+00 4.3582826986162826e-01 4.5891303135508066e+00 0 0 0
3855 2 1.6053319352966102e+00 5.6501684875032077e-01 3.6237527173855346e+00 0 0 0
3192 1 1.5704847291397996e+00 1.3471817378019957e+00 3.7112111334070614e+00 1 0 0
4250 2 2.3642468424841860e+00 4.6311613382663968e+00 4.3396790580556033e+00 1 0 1
1880 1 9.1394197430302171e+00 4.3110301846774570e+00 2.6982242962702947e+00 0 0 0
1584 1 2.4699479426582385e+00 7.9741911006631894e-01 3.9453383254388430e+00 0 0 0
3464 2 3.3559065732115831e+00 6.0904947615714511e-01 3.7125850773429265e+00 0 0 -1
652 1 3.5297554520112286e+00 1.2831450580572827e+00 4.2541834209059664e+00 0 0 0
208 1 8.4323054181642199e-01 4.5783506693596623e+00 4.7317839049566368e+00 0 0 0
991 1 9.1022600210692222e+00 9.1873512789656953e-01 2.5463446746920559e+00 0 0 0
4264 2 4.4590102592067353e+00 7.0776831069414148e-01 3.2553418518215991e+00 1 0 1
1054 1 5.1212876223799642e+00 3.7307072620681320e-01 3.6396699488768727e+00 0 0 0
481 1 4.5589224938189670e+00 1.2844589931512209e+00 3.9363570842731783e+00 0 0 0
235 1 5.7103045361084934e+00 1.1452973365418300e+00 3.9360190533889861e+00 0 0 0
3764 2 9.2433121910120999e+00 4.5795250498720141e-01 1.8015604995437997e+00 0 1 -1
3856 2 7.0414178970076069e+00 5.7506924163413786e-01 3.3149058646807155e+00 0 0 0
2360 1 6.7087245949489587e+00 1.0473067104802036e+00 4.0539409234889892e+00 0 1 0
3040 1 4.1020165811177147e+00 4.4478921329629273e+00 1.2944381680918987e-01 1 0 0
597 1 2.3138022031667588e-01 9.4223579554591530e-01 3.2502333323250465e-01 0 0 0
1950 1 8.7764444953582519e+00 1.0607195888909076e+00 3.5144777871955153e+00 0 0 0
4029 2 8.2667970435600182e+00 1.1824210793561949e+00 4.3013004978059701e+00 0 1 0
580 1 7.7371211158352660e+00 9.1947906438052773e-01 3.6239245624026406e+00 0 0 0
878 1 8.6225870883926881e+00 4.1777732061283324e-01 4.3709108420228890e+00 0 1 0
987 1 6.7050429985504412e+00 1.8439067719495881e+00 1.9824963218033562e-01 0 0 0
1425 1 9.5318716488032678e+00 3.1192124620787132e+00 3.9477992834628792e+00 0 1 0
4177 2 5.9815520701801912e+00 1.4582993795413577e+00 4.6975820324568458e+00 0 1 0
1242 1 5.5819794964532283e+00 1.6647137639938485e+00 1.3064299915713892e-01 0 1 0
906 1 9.6407681728050285e+00 2.6204413079499860e+00 2.3421482861980998e+00 0 1 0
508 1 6.6443057868190953e+00 4.5456040278577428e+00 3.1981268900021314e+00 0 0 0
3490 2 9.3097078602232153e-01 3.0026053648307305e+00 3.7350588891144567e+00 0 0 0
2562 1 8.4342321687379629e-01 1.9007332022221313e+00 4.0584146992173107e+00 1 0 -1
3080 1 1.4142454530273005e+00 2.4461526021668685e+00 3.3793696327052096e+00 1 0 0
3480 2 1.6120966906970076e+00 2.1448826983725837e+00 4.1747663084634867e+00 0 0 0
700 1 1.6018474398428608e+00 3.0374901983022267e+00 4.3014386412288168e+00 0 0 0
288 1 2.4547465011983012e+00 2.8572554110739290e+00 3.6253143301622512e+00 0 1 0
4208 2 2.5906010134712245e+00 2.8072665669853278e+00 4.4921255711102077e+00 1 0 0
543 1 2.4466398071118078e+00 1.8925191343681460e+00 4.0939060198885597e+00 0 0 0
1165 1 3.4237551132603592e+00 2.1080770838813105e+00 3.5237408233647223e+00 0 0 0
802 1 3.4427343079083621e+00 2.9530091068617605e+00 4.2608732886051852e+00 0 1 0
572 1 4.3297945715196384e+00 2.8351900666116783e+00 3.5281349381603615e+00 0 0 0
1167 1 4.4227799483297936e+00 2.2131644045774639e+00 4.3584966421372693e+00 0 0 0
237 1 2.3331976347750094e-01 1.1483178311050855e+00 1.3665328820649816e+00 0 0 0
3719 2 4.3365603481355324e+00 3.0727985547590806e+00 4.3115748339514601e+00 0 0 -1
4119 2 5.2002118449783632e+00 1.9561709135539673e+00 3.5920053089881319e+00 0 0 0
1007 1 5.4831938393348523e+00 2.0415024374900193e+00 4.4084014409431083e+00 0 0 0
2164 1 5.5272103351378981e+00 2.8594958460670594e+00 3.6190813587645083e+00 0 0 1
3884 2 5.9448301466840627e+00 2.7740062563199759e+00 4.4995944253129920e+00 0 0 1
1062 1 6.1281995861233263e+00 1.9876345825754855e+00 3.4317957671304318e+00 0 0 0
1194 1 7.1974995941215729e+00 1.8888045413958343e+00 3.3673144380056654e+00 0 1 0
814 1 6.5486875429192857e+00 2.0696462310274528e+00 4.3821611152604563e+00 0 1 0
1081 1 6.5587148091401142e+00 2.9808102769894274e+00 3.7016747996993025e+00 0 0 1
860 1 7.4816424867718734e+00 2.6145829118773127e+00 4.0358245911757731e+00 0 1 1
3460 2 9.8580812074251547e+00 2.6417211188298588e+00 3.1849628233529179e+00 -1 0 0
137 1 2.3029609815687908e+00 3.5006537707905094e-01 3.2558618567064705e-02 0 0 1
1071 1 7.5105270665907931e+00 1.6487158185342625e+00 4.5272044480711973e+00 0 0 -1
1573 1 8.2639130479693748e+00 1.9158292665595200e+00 3.7597924416909723e+00 0 0 0
537 1 8.5419084149553370e+00 2.8626878442469499e+00 3.9020198647813431e+00 0 0 0
1103 1 9.6394735672280163e+00 7.6068756783271563e-01 4.2859854251565244e+00 0 0 0
1042 1 2.5679447035788656e+00 4.5702337504065866e+00 4.7783855744451521e-02 0 0 0
114 1 1.1188293504147686e+00 3.8733923461070296e+00 3.9673978046641021e+00 0 0 0
124 1 5.9143509760878672e+00 3.6233482906939836e+00 4.2281506522845156e+00 0 0 0
177 1 2.5788077521610169e+00 3.9471672439640741e+00 3.1086516734516092e+00 0 0 0
1505 1 4.9334665812910705e+00 3.7312134130406123e+00 3.9585861275435850e+00 0 0 0
232 1 2.6656913991479567e+00 3.7059888966668169e+00 4.4192176018684464e+00 0 0 0
779 1 1.8561605839388216e+00 4.5389889479593180e+00 3.6137497544219928e+00 0 0 0
4148 2 1.9488074374455595e+00 3.6100201367444953e+00 3.7833773393196695e+00 1 0 0
57 1 1.5145512506720271e+00 1.4731045806394580e+00 4.7491572147445344e+00 0 0 0
548 1 6.6969425181337172e+00 3.0728703572152432e+00 4.8023724997173085e+00 0 0 0
3127 1 3.9304964503866189e+00 3.7961928394576954e+00 3.8297792797214609e+00 1 0 0
2076 1 9.0882482085909135e+00 2.0836369718650953e+00 3.1361713124473471e+00 0 0 1
1622 1 9.0795150896323769e+00 4.0360388016749571e+00 3.7150891123030365e+00 0 0 0
691 1 4.7017714407116440e+00 4.6573688697990070e+00 3.6133117922303160e+00 0 0 0
559 1 3.1350179853044819e+00 4.4621537640563567e+00 3.8309678848972943e+00 0 0 0
1488 1 7.0718825115448016e+00 4.6952747347211856e+00 6.5752630664049655e-02 0 0 0
94 1 2.7858213523542785e+00 1.1141696763623728e-01 3.2605136247457560e+00 0 0 0
1621 1 8.3174152587415282e+00 4.6150631533026045e+00 3.3038297376176953e+00 0 0 0
970 1 6.3287127103386043e+00 4.5188401887046439e+00 4.7688320569289786e+00 0 0 0
3516 2 1.3944769491684866e-01 9.8353842751119758e-01 2.6027216564392783e+00 0 0 0
4042 2 4.0981023716055187e+00 8.2599916055232314e-01 4.7346734681312661e+00 0 1 0
1906 1 7.5877053876569285e+00 5.9508859744491815e-01 4.6796575945436336e+00 0 1 0
513 1 5.2954629955668020e+00 4.5045702728079933e+00 4.7430166016530046e+00 0 0 0
3602 2 7.9778918733248796e+00 1.7477942120524487e-01 3.8037909090679149e+00 0 0 0
1472 1 9.9488503470418674e+00 4.1932571069922062e+00 1.9951820213023381e+00 0 0 0
10 1 1.2770786932139069e+00 7.2763119789794306e-01 2.3985859092024320e-02 0 0 1
932 1 3.6911238785514411e-01 1.0726523592126157e-02 1.2966669991037323e+00 0 1 0
1001 1 8.0528322005073640e+00 3.1492030265228332e+00 6.2627420178034451e-02 0 0 0
3631 2 4.7077024330413941e+00 4.8196646771516898e+00 9.5624159530932307e-01 0 0 1
1484 1 7.2335364846600454e+00 6.8416311737213198e-04 1.9208236859308734e+00 0 0 0
628 1 7.5691947113782456e+00 4.6141281992063403e+00 4.9151332511994683e+00 0 0 0
868 1 5.4090427552293763e-01 1.1417890144244214e+00 6.0899662530102727e+00 0 1 0
4300 2 8.1095421113572570e+00 1.1840786267277133e-01 6.1538948013440624e+00 1 1 0
1526 1 5.0988129333165810e+00 3.0611805131657763e+00 4.8728456788870860e+00 0 0 0
1069 1 4.0772912394013421e+00 1.5978035651944678e+00 5.1876737247140197e+00 0 0 0
2986 1 1.0155692820274673e+00 6.7989315197531708e-01 5.2888912281599678e+00 1 0 0
3545 2 1.8792231794947540e+00 8.6618055204029820e-01 5.3977743307756203e+00 0 1 0
199 1 1.5157180645072383e+00 6.9777893518846101e-01 6.2617614204912906e+00 0 0 0
4220 2 9.4438276636112963e+00 1.8078488121551901e+00 7.4265648577085663e+00 0 0 -1
3722 2 3.6616923108886468e+00 3.5143923321643183e-01 5.9207988881627447e+00 0 1 -1
370 1 3.8203963567103081e+00 2.2397775913714768e-01 8.1865518911839796e+00 0 1 0
706 1 2.7320209108567175e+00 7.4452608312678703e-01 5.9277124386193378e+00 0 0 0
914 1 4.2250246297439098e+00 1.1113160506397823e-01 9.1069175941799330e+00 0 1 0
3513 2 3.2504765170059775e+00 1.4382261004150749e+00 5.4860281337480599e+00 0 0 0
842 1 3.3918670452966797e+00 6.4670642590740046e-01 5.1365552271739148e+00 0 1 0
913 1 3.7950017678927463e+00 1.1243059977557281e+00 6.2503364248309001e+00 0 1 0
517 1 5.8760687634650912e+00 4.6317685351595674e+00 9.2395148162104164e+00 0 0 0
1904 1 9.2368035647934725e+00 1.8994151212890780e+00 5.6214722906099626e+00 0 1 0
3611 2 5.3205060277601310e+00 5.5832542211060887e-01 5.3634231250854736e+00 0 0 1
3752 2 4.7381276234094534e+00 1.3763485534238855e+00 5.7468889970421015e+00 0 0 0
526 1 4.3840012311173071e+00 5.8560042951498603e-01 5.5482247229402430e+00 0 0 -1
1080 1 5.1576232248280256e+00 8.0353932766890401e-01 6.3159340155279535e+00 0 0 0
1514 1 7.3997984752603445e+00 3.2091694271315885e+00 8.8261315585319995e+00 0 0 -1
1128 1 5.7693690465823702e+00 1.2557509171362289e+00 5.5451001154178279e+00 0 0 1
724 1 6.7586393712034205e+00 2.8217226345795066e-01 5.2715866772809621e+00 0 1 0
1498 1 5.9151633298947948e+00 3.3995518252721041e-01 5.9467768060913953e+00 0 0 0
1683 1 6.7331179954704465e+00 8.3968842756133633e-01 6.2701649177005994e+00 0 0 0
1199 1 6.7515444208164697e+00 1.3063434178362696e+00 5.1543827502258699e+00 0 1 0
3749 2 9.1040718959708844e+00 3.8769598930313403e+00 8.2558107064461090e+00 0 0 0
4122 2 7.5540512341379262e+00 1.5670449194702043e+00 5.4666199552326846e+00 0 0 0
1349 1 7.6510176185204157e+00 7.5249636386565455e-01 5.8560930644889391e+00 0 1 0
889 1 8.3470985996637097e+00 1.2337175743087194e+00 5.1991295199119572e+00 0 1 0
2044 1 8.5643963725336825e+00 2.6355431629488335e-01 5.4155686042047044e+00 0 0 0
1654 1 8.5756177651797003e+00 1.1375390545201296e+00 6.1853338976349246e+00 0 0 0
1907 1 8.9046850688861525e+00 2.4127270388873945e-01 6.4452786535483870e+00 0 1 0
3 1 1.8601980768972624e+00 2.7608118882425776e-02 5.5751552665493431e+00 0 0 -1
284 1 6.7313726755074466e-01 3.2524509719179778e-02 6.8970679348959791e+00 0 1 0
134 1 9.3368622909204912e-01 2.9220410412737285e+00 6.1031043441363497e+00 0 0 0
1021 1 9.1318833135545141e+00 3.3648167022503825e+00 9.3836780120337888e+00 0 0 0
1566 1 7.4244152380523047e+00 4.0264612645848699e+00 8.2949484377674025e+00 0 0 0
110 1 1.4409750797288108e+00 1.6137649452519363e+00 5.7417575384367616e+00 0 0 -1
26 1 1.0470294243425051e+00 2.5189300793510063e+00 5.0265332775061387e+00 0 0 0
695 1 2.5143394246858648e+00 1.7505438966905116e+00 5.8609860961082756e+00 0 0 0
602 1 2.1337094653206541e+00 2.2815215726968443e+00 5.0299157313168479e+00 0 0 0
2586 1 1.8829592532798927e+00 2.5571586944726192e+00 6.1577112503192710e+00 1 0 0
4302 2 2.7109275018576833e+00 2.5804440928497940e+00 5.6386749816861110e+00 1 1 0
1180 1 3.5821028973604894e+00 2.1112284436237041e+00 5.9729469543489797e+00 0 0 0
1482 1 4.0912053061761888e+00 2.7311563691386258e+00 5.2051336073994126e+00 0 0 0
592 1 1.5819825694840000e+00 2.3097162039100996e-01 8.7698348972200648e+00 0 0 -1
675 1 3.7198179355604952e+00 3.1549753616424612e+00 6.1287699205533981e+00 0 0 0
676 1 3.0768620633518600e+00 3.2877796828598851e+00 5.2407664529531779e+00 0 0 0
1114 1 4.9803647313648121e+00 2.1245101911296733e+00 5.3318933386376335e+00 0 0 0
1187 1 5.6069154624144462e+00 2.1112371696423295e+00 6.1986271215101256e+00 0 0 0
659 1 4.8223706734439142e+00 2.8538394744381961e+00 6.0570462546363704e+00 0 0 0
3713 2 5.5762177610586079e+00 2.8511334479093060e+00 5.6635785683625821e+00 0 0 0
698 1 4.5609809688423537e+00 1.8780642137677375e+00 6.4101101959620461e+00 0 0 0
1177 1 6.0319134472280558e+00 2.2418743105731940e+00 5.2186346096148792e+00 0 0 0
1853 1 6.6735170242035018e+00 1.8613352211902345e+00 6.1177830090713936e+00 0 1 1
3123 1 6.5336063739564132e+00 2.8814128365096452e+00 5.9573857827788776e+00 1 0 0
3577 2 7.3692857565323653e+00 2.4982820994162744e+00 6.1850636000252104e+00 0 0 -1
1676 1 7.1868188527274031e+00 2.3434519639207361e+00 5.3260536019126645e+00 0 0 0
1647 1 8.2166639135537700e+00 2.0308135608771916e+00 5.8806629282927316e+00 0 0 0
1171 1 9.8064332344922924e+00 3.4701235004028259e+00 5.5346857011121839e+00 0 0 0
1396 1 9.2992976634204911e+00 1.5355285010157646e-01 7.4348674314941920e+00 0 1 0
1153 1 8.1513434513739824e+00 2.6610945467760159e+00 6.6755777213585352e+00 0 0 0
2084 1 9.6669551691212323e+00 4.2095104018732208e+00 9.6174329704956580e+00 0 0 0
2590 1 5.6308189100508210e-01 4.2482185431282167e+00 5.7735600896619044e+00 1 0 0
2453 1 9.3966195853694501e-01 3.5450125590481254e+00 5.0243223087748152e+00 1 0 0
3811 2 2.5028218902039190e+00 3.1870595439542387e-01 5.0178108712143352e+00 0 1 0
1050 1 6.6798084652712708e+00 2.9199859611999708e+00 9.5990229451053342e+00 0 0 -1
1079 1 1.9038027931690877e+00 3.2172093700741291e+00 5.3595946415870461e+00 0 0 0
223 1 1.6672676961269572e+00 4.0562241573168931e+00 5.8791696523709698e+00 0 0 0
1133 1 2.6273629020518845e+00 3.4407716948773124e+00 6.1522657822252071e+00 0 0 0
153 1 2.9304662533346644e+00 4.4715577446169483e+00 4.9981864474756943e+00 0 0 1
1115 1 9.0662042243606926e+00 4.1465858162011431e+00 5.9882534001629706e+00 0 0 0
601 1 3.6519690251572379e+00 4.1002371502392405e+00 5.6557670934117086e+00 0 0 0
1093 1 4.8697355300294589e+00 3.9393763092996323e+00 5.7450326358792587e+00 0 0 0
1899 1 9.3355934421722271e+00 9.8548302741877891e-01 5.2435061284120730e+00 0 1 0
2088 1 5.9680514441253543e+00 3.6455885264411352e+00 5.3474948683499228e+00 0 0 0
127 1 5.6286619176024786e+00 3.2485188236644693e+00 6.4093403465507315e+00 0 0 0
784 1 8.8984694943126001e+00 1.1339433027814254e+00 7.2299713980417186e+00 0 1 0