LAMMPS data file via write_data, version 12 Dec 2018, timestep = 341880

4320 atoms
2 atom types

0.0000000000000000e+00 1.9309999999999999e+01 xlo xhi
0.0000000000000000e+00 1.9309999999999999e+01 ylo yhi
0.0000000000000000e+00 9.6549999999999994e+00 zlo zhi
5.0012899999999991e+00 0.0000000000000000e+00 0.0000000000000000e+00 xy xz yz

Masses

1 1
2 1

Atoms # atomic

4263 2 5.8283766546790199e+00 4.4409376330589749e+00 2.1662077767486565e+00 1 0 0
1001 1 6.8306158320511443e+00 2.6944548449107488e+00 6.9760052655707533e-02 0 0 0
1433 1 9.1285980070606652e+00 4.1428591267106025e+00 1.4583934502317393e+00 0 0 0
2159 1 9.6735892033860935e+00 3.1182732927607173e+00 3.9566270452808006e+00 0 0 0
3622 2 4.5269486801949710e-01 1.5083167453504911e+00 8.0452610329278373e-01 0 0 1
1502 1 8.2543723728902698e+00 4.4003617266611030e+00 1.8745515325296489e+00 0 0 0
474 1 4.0570880933246262e-01 3.9248054899737383e-01 3.8512827856436229e+00 0 1 0
3205 1 9.3460332400465873e-01 2.2252117860798490e+00 8.2806393414775814e-01 1 1 0
1979 1 9.0422247642452724e+00 2.1819871804505122e+00 2.3339626643357025e+00 0 0 0
851 1 1.5736806675893900e+00 1.3444464451168350e+00 6.6696521041849244e-01 0 1 0
253 1 2.0411038822900780e+00 6.5400458318094856e-01 1.3054645542591803e+00 0 1 0
1190 1 2.5010446281790202e+00 1.7112984338862303e+00 1.1584408082897191e+00 0 0 1
3918 2 2.3472089570384487e+00 1.8147720067829778e+00 2.6455555148388343e-01 0 1 0
30 1 5.8649021536365709e+00 3.6475713876993088e+00 3.8883763231077593e+00 0 0 0
1127 1 2.4732183703181034e+00 8.9632245030240665e-01 2.3863954546268040e-01 0 0 1
1554 1 3.3643593197455637e+00 1.1896104741286659e+00 9.1515021490455262e-01 0 0 1
4116 2 2.9757387714779147e+00 7.3458535540319325e-01 1.6706045399148932e+00 1 0 -1
95 1 3.9021470705270618e+00 5.3269287561309020e-01 1.5584000527723498e+00 0 0 0
2513 1 8.7704322378747346e+00 2.4312621481209043e-01 9.8396075499876268e-01 0 0 0
3775 2 6.6115785015938835e+00 1.3993559759868565e-01 2.8642375129245545e+00 0 1 0
870 1 4.4059943035233102e+00 1.4154900372573427e+00 1.3592749522873226e+00 0 1 1
1798 1 5.0896428869098793e+00 6.1537833762523741e-01 1.0854602327427412e+00 0 1 0
1022 1 2.8681347980050242e+00 4.5216105265215445e+00 3.0955924160916868e+00 0 0 -1
1711 1 8.5835215604351145e+00 2.4623070670324405e+00 4.0794212069092073e-01 0 1 0
1615 1 6.2627642390998108e+00 1.0212964333736780e+00 1.0676536975547513e+00 0 0 1
1678 1 8.3542067334162198e+00 2.7609351698711402e+00 2.9335600331896461e+00 0 0 1
987 1 5.1435747055512788e+00 1.3915185754759540e+00 2.7064515540375095e-01 0 0 0
1536 1 7.1175317165700385e+00 4.8097829144929722e+00 1.7356164609676403e+00 0 0 0
767 1 6.9527546868078565e+00 1.9128705893971135e-01 1.0373251291892576e+00 0 1 0
3468 2 7.2515115894254665e+00 1.0030443617903404e+00 9.8341584716042030e-01 -1 0 1
577 1 2.4289132813768783e+00 1.5515676928955752e-02 1.9526920305438589e+00 0 0 0
1470 1 8.4973665610649238e+00 2.4125001482379602e+00 1.4361082255737050e+00 0 0 0
4042 2 2.6680791030447910e+00 9.1170788792275781e-01 4.8144000426192868e+00 0 1 0
3599 2 1.1889673741609768e+00 3.8447967505470118e+00 7.5448693009997703e-01 0 0 0
115 1 9.5544459855837438e-01 7.1562776593982103e-01 1.3006314747729142e+00 0 0 0
1489 1 9.8991545353535493e+00 1.2813995007932204e+00 3.3199706498957471e+00 0 0 0
2460 1 1.0311362782676330e+01 3.9642248749869231e+00 3.8961593767150045e+00 0 0 0
3590 2 5.6819133593300473e+00 4.6281912025687229e+00 3.9494674252298281e+00 0 0 -1
1160 1 7.8803740645716047e+00 5.2590763226584081e-01 1.4566872369608044e+00 0 0 0
242 1 2.8781862281822685e+00 1.9496290211991560e-01 9.2278941942247095e-01 0 0 1
622 1 1.6371565380056659e+00 3.1013714799442589e+00 6.7852171797515537e-01 0 0 1
3750 2 1.8397316979038192e+00 2.2458579567819363e+00 8.8590076672361340e-01 0 0 1
34 1 2.7234328476147680e+00 2.5909904422806922e+00 5.9423122342423451e-01 0 0 0
1065 1 2.1605203063861160e+00 2.7465007131480967e+00 1.5155021478267707e+00 0 0 0
968 1 3.7950417013883704e+00 2.3906267966331183e+00 6.4552722374064730e-01 0 0 1
3708 2 3.2907812252852566e+00 1.9852244157638592e+00 1.1972833252904695e+00 0 0 0
1166 1 3.3358730393363798e+00 3.0272787737694222e+00 1.3777761962785113e+00 0 0 1
3768 2 3.6583100263808732e+00 3.3109077567150980e+00 6.1364814058747419e-01 0 1 0
3676 2 7.9831946158000395e+00 1.0535642486455403e+00 2.0917311902957749e+00 0 1 1
3757 2 5.3176148493328350e+00 1.5782031908920744e+00 1.1505541279475076e+00 0 0 1
1764 1 4.7716552896313491e+00 2.2444870943579516e+00 8.4274034834778044e-01 0 1 0
1617 1 6.0501667741483471e+00 2.2160965552330709e+00 9.5910884767419458e-01 0 0 1
2174 1 4.1847250091713875e+00 3.1673923352841443e-01 5.1668177467086884e-01 0 1 0
1499 1 6.9652526606877831e+00 1.8003977155105211e+00 9.5411208603035125e-01 0 0 1
1544 1 8.7338960479157279e+00 1.4113865276716060e+00 6.3937455791624920e-01 0 0 0
1946 1 9.7922843966078972e+00 3.8384562493294583e+00 2.2041840356791211e+00 0 0 0
1965 1 8.8345990644674117e+00 1.2366801431773238e+00 1.7524663063491674e+00 0 0 0
1145 1 8.2251288386419255e+00 4.2145552348638127e+00 4.1457522526657202e+00 0 0 0
1538 1 8.1389605958061786e+00 2.8739934985748872e-01 3.1578245629964150e+00 0 0 0
628 1 6.3778020283599703e+00 4.0621678412681552e+00 4.7861504432889062e+00 0 0 0
4281 2 9.8103364248200400e+00 1.0658467431724146e+00 3.2930913830189201e-02 0 1 0
4133 2 1.0065558151030309e+01 4.5081608278957654e+00 4.6416668983563971e+00 0 0 0
4296 2 7.2463429759356170e+00 4.6556422520693079e+00 4.4220201572028550e+00 1 0 0
1513 1 6.7807528794892233e+00 4.2441887882780565e+00 7.6099434788323006e-01 0 0 0
952 1 7.9118273409962070e+00 1.5511994081652807e+00 1.2550432757302914e+00 0 0 0
656 1 2.9104481935256366e+00 3.6819277238636965e+00 5.7011925119360218e-01 0 0 1
386 1 4.6662321235355080e+00 8.5447527181669689e-02 3.9355329679726969e+00 0 1 0
717 1 2.0032914443195979e+00 4.1532942464956637e+00 7.8533165754886980e-01 0 0 1
1588 1 9.1631390890047122e+00 4.7047598092866032e+00 3.7393716967847928e+00 0 0 0
668 1 2.6245666819348150e+00 3.7340925437929142e+00 1.6212966545394194e+00 0 0 0
2201 1 8.2933505465644419e+00 3.4600688957602208e+00 1.1962985661242758e+00 0 1 0
1472 1 8.7746366072636448e+00 3.3507541091094168e+00 2.0810815092870838e+00 0 0 0
1019 1 4.4547630153480604e+00 3.2491898269179216e+00 9.6723723105462589e-01 0 0 0
1198 1 3.7010447825811217e+00 4.0024564952706863e+00 1.1152420768349878e+00 0 1 0
3627 2 4.4950684921672917e+00 4.2217550009224372e+00 8.3896179960785022e-01 0 0 1
1870 1 7.9164240858226913e+00 7.9213478128493042e-01 4.4058134075324679e-01 0 1 1
3503 2 7.5608018693165562e+00 1.7245149970802034e+00 3.8314427387790064e+00 -1 0 2
567 1 5.4997418693843452e+00 3.1167504523291147e+00 1.1301663567965363e+00 0 0 0
669 1 5.2202811132917315e+00 4.2111175045393443e+00 1.3892568413800883e+00 0 0 1
3865 2 5.9044899292583422e+00 4.1204446255018681e+00 8.4622341355801101e-01 0 0 0
1051 1 5.1128711861831579e+00 3.7424803619189060e+00 3.3254836626280659e-01 0 0 0
1098 1 7.7267688108012873e+00 1.8114803455161683e+00 2.3407182847443225e-01 0 0 1
3588 2 2.0789723285020374e+00 4.0701645068109569e+00 3.4461223190434565e+00 0 0 0
3771 2 8.8454895549664680e+00 2.8314956340043853e+00 3.7297232116803998e+00 0 1 -1
503 1 7.6214700416854333e+00 2.6595051074419400e+00 8.4119838021523963e-01 0 0 0
1506 1 6.6873370617819328e+00 3.0341739022789911e+00 1.0804374002292514e+00 0 0 0
1564 1 7.5411841911300375e+00 3.6254895015567006e+00 3.6056301180021288e-01 0 0 1
1572 1 7.3260358203521889e+00 3.7534701884815154e+00 1.5042911563163217e+00 0 0 1
1671 1 9.2927508281046673e+00 3.2123048354850434e+00 8.1768242452750750e-01 0 0 1
2108 1 6.4704134117604708e+00 3.0479607419055870e+00 4.6985911376564058e+00 0 0 0
2006 1 9.8866447624693752e+00 4.0752265881642433e+00 6.2287864416806760e-01 0 0 0
94 1 1.2280319879464883e+00 5.0373124274436321e-01 3.2948319729696176e+00 0 0 0
2145 1 9.1552179303211823e+00 2.0028267236395796e+00 3.4385328215951736e+00 0 0 0
2468 1 9.4135781862185421e+00 1.9723349561949846e+00 1.1541482676526529e+00 0 0 0
520 1 5.6516729485440687e-01 1.6105978828584229e+00 1.7129233684654244e+00 0 0 0
2084 1 8.6094942782886399e+00 3.4833649477967810e+00 1.3389762870793639e-01 0 0 1
715 1 6.0233014400092344e-01 1.3146213639509661e+00 2.9632708401867847e+00 0 0 0
2081 1 1.0043548925695969e+01 2.2149274242250998e+00 3.9005636933631207e+00 0 0 0
1000 1 1.5865878792873325e+00 1.6815659131723322e+00 1.5905175269075162e+00 0 0 0
4214 2 1.1852036480496588e+00 1.7134041580774100e+00 2.3671518083503686e+00 1 0 0
817 1 1.3250863708563396e+00 8.4877124675892046e-01 2.3200850245795186e+00 0 1 0
159 1 2.4304078658180379e+00 1.2004731633190762e+00 2.1064255180839129e+00 0 0 0
992 1 1.6772428590101014e+00 1.4225189597285448e+00 3.0834511516853294e+00 0 0 0
966 1 2.2168056068635731e+00 5.2293397177877765e-01 2.9932942745276057e+00 0 0 0
1134 1 2.8925767082510703e+00 1.6105675953379608e+00 2.8847552469419000e+00 0 0 1
1040 1 3.5030097194986562e+00 1.4974460181205280e+00 2.0404257606072576e+00 0 0 0
1358 1 3.2018853125032058e+00 6.6059076556068819e-01 2.5861508909629620e+00 0 1 1
1621 1 7.3343009191622608e+00 4.0481997510615955e+00 3.2975497431037879e+00 0 0 0
3878 2 4.0801679413769447e+00 8.9706122230953744e-01 2.3073402507468392e+00 0 0 1
631 1 3.8134525911623882e+00 1.4258889949046094e+00 3.2726871362303469e+00 0 0 0
3756 2 5.5570146573546726e+00 4.0484123293801716e-01 1.7972559587459920e+00 0 0 1
1357 1 4.7636343740673288e+00 2.9832953028890313e-01 2.1209896496635383e+00 0 1 1
575 1 4.8502127071604724e+00 1.0004081475300690e+00 2.9649962091211792e+00 0 0 0
722 1 5.2339535869715004e+00 1.1907500775888906e+00 1.9327051374396271e+00 0 1 0
1147 1 5.7035842833707635e+00 4.5541887638746509e-01 2.7212750405675368e+00 0 0 1
1351 1 6.4385789276990657e+00 2.5086686695199728e-01 1.9788377263687678e+00 0 1 0
3482 2 8.0912654484361859e+00 4.1983108057952805e+00 9.3303558019963651e-02 0 0 1
2538 1 9.6217979424872766e+00 9.0220366077468239e-01 1.1132759877940817e+00 0 0 0
1457 1 8.8795579766569848e+00 3.7330490917640433e+00 3.5098141012484514e+00 0 0 0
955 1 6.5482219883129913e+00 4.5660243594763985e+00 3.8544538374887818e+00 0 0 0
3492 2 6.7548404826140995e-01 4.1432944445752390e-01 2.5948828783317910e+00 0 0 0
1783 1 4.0985607789087819e+00 2.3936757114289303e-01 3.0097934192878939e+00 0 1 0
513 1 4.2343873246838442e+00 4.4521508452388945e+00 4.7684181198136733e+00 0 0 0
3847 2 8.2343745325153570e+00 4.5017417812410665e+00 3.1995958382386078e+00 0 0 0
137 1 7.8713310594549735e-01 7.8744101687874113e-01 2.4422963243046625e-01 0 0 1
558 1 1.0807885745884325e+00 2.6444519982434240e+00 1.7475794155119180e+00 0 0 0
1519 1 8.5485091400064377e+00 3.3673209073204724e-01 2.2158803832637104e+00 0 0 0
83 1 1.2197607384695244e+00 3.3972426507018119e+00 2.6578165052074763e+00 0 0 0
166 1 1.2664464196226386e+00 2.4000971422270587e+00 3.2870437605097766e+00 0 0 0
1376 1 1.9408582241204355e+00 2.3732140380266094e+00 2.4775769361025644e+00 0 1 0
3606 2 2.0227913832351971e+00 3.2412704421159115e+00 2.1917005551590112e+00 0 0 0
2941 1 2.9251540358150585e+00 3.1817237424263403e+00 2.3895655994887970e+00 1 0 0
3608 2 2.6850180591192858e+00 2.4886011561281856e+00 2.9060490816760960e+00 0 0 0
3128 1 2.1614569239721542e+00 3.2288206277210083e+00 3.1867115550288712e+00 1 0 0
555 1 2.8620577996249210e+00 2.2059014844273066e+00 1.9939509118155361e+00 0 0 0
505 1 4.0830459458494746e+00 2.3773315609698304e+00 1.6920555744280648e+00 0 0 0
663 1 3.7060778755362129e+00 2.3933967497027711e+00 2.6833844158801372e+00 0 0 0
3686 2 3.8095080508610337e+00 3.1150229583459419e+00 2.0593848968797763e+00 0 1 0
1446 1 4.6275648771403457e+00 2.8722126577608678e+00 2.5537031427959160e+00 0 0 0
568 1 4.5228339185084216e+00 1.7439995326217499e+00 2.4050291663138497e+00 0 0 0
3703 2 4.7658666754260253e+00 2.9698818141131391e+00 1.7048912892989390e+00 0 0 0
3533 2 5.7074812806808053e+00 1.4598513347085025e+00 2.6198047704590839e+00 0 1 0
1462 1 5.1521751115230039e+00 2.1888861314553489e+00 1.7645146929060245e+00 0 0 0
1511 1 5.4932287046860981e+00 2.2476117908953293e+00 2.8421947674462325e+00 0 0 0
1561 1 6.0957702931604896e+00 2.7300042135227276e+00 1.9585784588180051e+00 0 0 0
2197 1 6.5493092521549574e+00 1.1383485830125957e+00 2.8786058174497819e+00 0 1 0
566 1 6.1970861554062244e+00 1.7153077807405368e+00 1.8534559510854567e+00 0 0 0
1437 1 7.0000251608603037e+00 2.3216280031028731e+00 1.8697836684681044e+00 0 0 0
2101 1 7.1585068881454506e+00 1.2361456521935572e+00 1.8472103571944491e+00 0 0 1
3946 2 7.0748653745181791e+00 1.8370702271396395e+00 2.5742938601297118e+00 0 1 0
1721 1 6.4737951532339713e+00 2.2681919547426501e+00 2.8938207661763915e+00 0 1 0
2421 1 7.4863886127366861e+00 2.3628366889182892e+00 3.1955423594103651e+00 0 0 0
2689 1 8.7978367891861726e+00 1.2068642457029428e+00 2.8121510179979716e+00 0 0 0
1441 1 9.5642716839433444e+00 1.9350604794376933e+00 1.4968698262738916e-01 0 0 0
1191 1 4.8107368875940830e+00 4.5138718174947989e+00 3.6766731545263136e+00 0 0 0
1696 1 7.2717667914272157e+00 3.7882271986540612e+00 4.3749228346742850e+00 0 0 0
2996 1 2.8873556874020836e+00 4.5952966091323120e+00 1.1439084611116559e+00 1 0 0
2037 1 6.6331769417300519e+00 4.5206062442670989e+00 2.5450569720430232e+00 0 0 0
615 1 1.5107751674380490e+00 3.6475124661619716e+00 1.6630235953702766e+00 0 0 1
2112 1 1.0364645733725187e+01 4.4321465033306566e+00 1.5204225634673834e+00 0 0 0
3635 2 9.1674842874466798e+00 1.0553184519666273e-01 4.3721881907766731e+00 0 0 1
2141 1 7.7720152392469313e+00 4.5825655579928739e+00 9.6028414790333105e-01 0 0 1
1071 1 6.1101453039814091e+00 1.5033847303357513e+00 4.7246036967409042e+00 0 0 -1
4228 2 1.4712393493536498e+00 2.0237302519395384e-01 1.7791452733246986e+00 1 0 0
1039 1 3.3368138078667702e+00 4.1915374696237722e+00 2.2127394939406204e+00 0 0 0
4238 2 2.0547399516383500e+00 4.3329064395511585e+00 1.6762921109876041e+00 1 0 0
3619 2 2.8715486432000148e+00 3.6720401422017601e+00 3.0791241606981101e+00 0 0 1
586 1 2.1987621291878261e+00 3.9618881944876523e+00 2.5014207251423648e+00 0 0 0
2132 1 9.0593822411069276e+00 6.1437494004183990e-01 3.6651183583696394e+00 0 0 0
1682 1 6.8174776616505666e+00 3.0536018125213866e+00 3.5694702606384339e+00 0 0 0
1440 1 3.8056323858005792e+00 3.4690241473662993e+00 2.8710946153969763e+00 0 0 0
664 1 4.3572347964495597e+00 3.7011670176822729e+00 1.9301761816331746e+00 0 0 0
550 1 4.0139293634435846e+00 4.5628101389105744e+00 2.9847003137159831e+00 0 0 0
655 1 4.9135174171074221e+00 4.5763918969351280e+00 2.4364306223930825e+00 0 0 1
994 1 4.8443260374267831e+00 3.7372328553702303e+00 3.0540013484022448e+00 0 0 0
1428 1 6.2097156490565091e+00 3.8718879921124345e+00 1.6053271650578025e+00 0 0 0
1613 1 9.3503960145829481e+00 4.0242929441240554e+00 4.5066581326839099e+00 0 0 0
534 1 5.8813697180521833e+00 3.1556720892723811e+00 2.9365138944799254e+00 0 0 0
1271 1 5.3354914194916443e+00 3.5098093316494046e+00 2.1351019125233566e+00 0 1 0
1474 1 9.8771895962338832e+00 4.4214980505609605e+00 3.0334527793313639e+00 0 0 0
3838 2 6.4329408899558000e+00 3.7879797295859712e+00 3.1378290636532209e+00 0 0 0
3127 1 2.7510175410354982e+00 3.9252746784617409e+00 3.9364054978387690e+00 1 0 0
1072 1 7.7120035530825968e+00 2.9982907573566107e+00 2.1325398002319460e+00 0 0 0
1535 1 6.8313529043128618e+00 3.4045994376517132e+00 2.4249728823347954e+00 0 0 0
3964 2 7.4662379475516341e+00 3.1816645507110430e+00 2.9640205662792551e+00 0 1 0
1858 1 7.4324701998292415e+00 1.1373291496451101e+00 4.4649314595234388e+00 0 1 0
1103 1 8.0717164941293529e+00 3.2255252319610872e-01 4.2571100306270813e+00 0 0 0
2076 1 7.6919684680169444e+00 1.3103355006326152e+00 2.9782349863516360e+00 0 0 1
1050 1 5.5353439856691269e+00 2.6654103425748401e+00 8.5839672476467788e-02 0 0 0
4063 2 8.9655171570957393e+00 5.3716890082615938e-02 2.9100606587402598e+00 0 1 1
1607 1 8.8698424727302996e+00 4.5134034120736635e+00 4.5567164711358271e-01 0 0 1
599 1 2.4605625608806023e+00 3.8365700768682925e-01 4.0112837359294078e+00 0 0 0
4129 2 1.0517603493073043e+01 3.7556847366114749e+00 3.0771608267044139e+00 1 0 1
1689 1 9.0732851785690904e+00 2.3345776335816422e+00 4.5011622114913630e+00 0 0 0
2631 1 1.0124726198732844e+01 2.1687991043044565e+00 2.8098918929159411e+00 0 0 0
1029 1 5.8587886909607816e+00 6.6408150489754703e-01 2.1243817444881502e-01 0 0 0
50 1 4.3714087215138795e+00 4.6754829723009550e+00 1.5265683075224670e+00 0 0 0
1880 1 8.0999731290450541e+00 3.7656025415712060e+00 2.6724750926096030e+00 0 0 0
1584 1 1.0741233247820339e+00 1.4029121673135752e+00 3.9578411660778103e+00 0 0 0
3464 2 1.8205854791647496e+00 9.1744262008603594e-01 3.7429513141405240e+00 0 0 -1
652 1 2.0353980134240723e+00 1.5349228107719908e+00 4.3539911432881082e+00 0 0 0
1622 1 7.9006587600864417e+00 3.3071771759965563e+00 3.6713348787071403e+00 0 0 0
991 1 7.3256091547498636e+00 4.8234938065846417e-01 2.5344659814144666e+00 0 0 0
4264 2 2.9755601323803553e+00 7.0897431953693724e-01 3.4027576680895115e+00 1 0 1
1054 1 3.5798391063087642e+00 5.4351684613967277e-01 3.9941447236273451e+00 0 0 0
481 1 2.9858187501604441e+00 1.4150244787065889e+00 3.9580843338754410e+00 0 0 0
235 1 4.5714883023722166e+00 1.1464043971140720e+00 3.9960879920217529e+00 0 0 0
887 1 1.4155461544073664e+00 4.3476185087881036e-01 4.2938805067128634e+00 0 1 0
3856 2 5.3289672432745041e+00 3.7891266772779120e-01 3.4906299718556060e+00 0 0 0
2360 1 5.4330998498625096e+00 6.8097873567430822e-01 4.3991743484962038e+00 0 1 0
1066 1 1.0172093171450516e+01 2.5351605043621990e+00 6.6866095279267701e-01 0 0 0
3587 2 7.4251636642170880e+00 4.1215483943271431e+00 2.3202629719715322e+00 0 0 0
1950 1 7.2390447471934696e+00 5.3869739160172847e-01 3.6088629498481475e+00 0 0 0
4029 2 6.7278813004926397e+00 6.7318681387890178e-01 4.2402699044003072e+00 0 1 0
580 1 6.1963240693645139e+00 4.9769080214979627e-01 3.6247906430310981e+00 0 0 0
1122 1 9.3623330566822300e+00 3.0250009767083103e-01 1.6769598289040460e-01 0 0 0
970 1 5.3653616355281297e+00 4.2704161522538842e+00 4.7702810401612750e+00 0 0 0
1425 1 8.1208648509259547e+00 2.3511551668090220e+00 3.9780078514766171e+00 0 1 0
1526 1 3.8680421296622534e+00 3.0141589558231763e+00 4.7906339959846926e+00 0 0 0
1242 1 4.1465450552290859e+00 1.4795421308760268e+00 2.9984580651060649e-01 0 1 0
906 1 8.0436049462876866e+00 1.8776487962092412e+00 2.2693819010924421e+00 0 1 0
548 1 5.3181104703718809e+00 2.9473182492593675e+00 4.7059805486669655e+00 0 0 0
3772 2 1.6174790916959980e+00 4.4379006280395261e-01 5.0181981005946574e-01 0 1 1
4242 2 9.3049021700599237e+00 3.2020444075541304e-01 1.6780857843853436e+00 0 0 1
1359 1 6.9047208824198307e+00 1.0969045044044652e+00 1.4734360572792451e-01 0 1 1
2854 1 9.4885809099061174e+00 1.3275556830677200e+00 4.3106259629481771e+00 0 1 0
1117 1 4.1217440236624343e+00 3.8570576924292554e+00 1.1117144272899228e-01 0 0 1
288 1 1.2137329114948345e+00 3.3604966011550279e+00 3.6808878718398370e+00 0 1 0
4208 2 1.5325717688911547e+00 3.2046864247981310e+00 4.5946615314734807e+00 1 0 0
543 1 1.3208741394496859e+00 2.4839791890071976e+00 4.2961521472273647e+00 0 0 0
1165 1 2.2633343617965349e+00 2.1425327531700917e+00 3.5148639506847883e+00 0 0 0
802 1 2.2469210602745973e+00 3.0040646452792807e+00 4.2689051057678276e+00 0 1 0
572 1 3.0937417968009688e+00 2.9021265884122625e+00 3.5403867227763186e+00 0 0 0
1167 1 2.8839301549431369e+00 2.2520269581501600e+00 4.5272294343126820e+00 0 0 0
1485 1 9.5583515280499451e+00 6.2768407128081738e-01 2.4790445185819370e+00 0 0 0
3719 2 3.1449636646432100e+00 3.2132835913017290e+00 4.3495291536904865e+00 0 0 -1
4119 2 3.4032969679826550e+00 2.1438937446970545e+00 3.6450623341443360e+00 0 0 0
1007 1 3.9439205320145088e+00 1.8808379674532070e+00 4.2956805730410590e+00 0 0 0
2164 1 4.0697152717407370e+00 2.7588374128850166e+00 3.7310619022122040e+00 0 0 1
3884 2 4.5928977407148492e+00 2.6418361966770090e+00 4.4178856996882825e+00 0 0 1
1062 1 4.6725959361192384e+00 1.9423172831060815e+00 3.4544916134849255e+00 0 0 0
1194 1 5.6481211914331571e+00 1.4145004433859951e+00 3.6121609914809336e+00 0 1 0
814 1 5.1085897209201896e+00 1.9816740626076219e+00 4.3491614063661928e+00 0 1 0
1081 1 5.1781438021800801e+00 2.8824217231412215e+00 3.6790927342177482e+00 0 0 1
860 1 6.0488440532159959e+00 2.3557648007216954e+00 3.9985317173550614e+00 0 1 1
3460 2 8.2766076477192954e+00 1.9421616927501140e+00 3.1560177783710599e+00 -1 0 0
2250 1 8.3634668681177313e+00 1.3504388760241985e+00 3.9403751969710381e+00 0 1 0
2098 1 6.2080093552101410e+00 3.4953734574809441e+00 3.3733739554760683e-01 0 0 1
1573 1 6.7362671383828969e+00 1.4827295165770125e+00 3.8111136024080099e+00 0 0 0
537 1 7.1504072484028569e+00 2.3225938790552703e+00 4.3553714450404959e+00 0 0 0
508 1 5.7424901457978645e+00 4.4263997612042019e+00 3.1110308015894832e+00 0 0 0
964 1 9.6261776987135637e+00 2.8742150180716433e+00 1.7559588453221651e+00 0 0 0
2063 1 9.3745831538017814e+00 2.9404370929904604e+00 2.9546140339814850e+00 0 0 0
124 1 4.6870659495557732e+00 3.6434090999283635e+00 4.2137568530279816e+00 0 0 0
177 1 1.3542141655176201e+00 4.3019689800656877e+00 3.0753740322171672e+00 0 0 0
1505 1 3.7811029476150626e+00 3.7709111412729683e+00 3.8104564080255559e+00 0 0 0
232 1 1.7224974476122874e+00 4.0638167077116432e+00 4.2918654712750426e+00 0 0 0
1137 1 8.9491449304388073e+00 4.3859692697592028e+00 2.6452217144069929e+00 0 0 1
3121 1 8.5912725915708616e+00 3.2931451662080029e+00 4.4951506033622817e+00 0 0 0
2850 1 9.8541307361636825e+00 1.5380352114546134e+00 1.9467949912940843e+00 0 1 0
744 1 5.3808966703960124e+00 4.7897063746658919e+00 5.7358074315086105e-01 0 1 0
3040 1 3.3453892662365092e+00 4.5497259979889657e+00 1.9998832055924104e-01 1 0 0
1531 1 7.2519424406141821e+00 9.9203102645314789e-02 2.3079188501313623e-02 0 0 1
636 1 1.5570265098973661e+00 4.7798320520106943e+00 2.1381538981022659e+00 0 0 1
1527 1 1.0297737046608241e+01 3.3965966771621678e+00 5.1752837504995909e-02 0 0 0
4177 2 4.3979023076208144e+00 1.4233196012554317e+00 4.7871901011143656e+00 0 1 0
2592 1 1.0842669348821230e+01 4.7189921519642315e+00 4.4447205599917741e+00 0 0 0
691 1 3.4483282943617866e+00 4.7787384154684478e+00 3.8980586127650536e+00 0 0 0
3441 1 6.1508650076205351e-01 6.0890324854781406e-03 4.8262738236511558e+00 1 1 0
2100 1 9.5519575125411382e+00 3.3745302809404607e+00 5.9585694823401596e+00 0 0 0
3100 1 1.2239138378284815e+00 4.7167941969558580e+00 6.9032809968700537e+00 1 0 0
617 1 5.8544767681226162e+00 4.4157303270119019e+00 7.9633293561978471e+00 0 0 0
1171 1 8.6847105569273921e+00 2.7636880489293474e+00 5.4059388497852607e+00 0 0 0
1069 1 2.5776504153052180e+00 1.6362251596350554e+00 5.2765547210357404e+00 0 0 0
3867 2 8.7212154019471484e+00 4.5091304874432536e+00 4.9517894908961004e+00 0 0 0
975 1 8.6933318333857912e+00 7.6179908577174071e-01 4.8941222520867047e+00 0 0 0
2038 1 1.0509097592299455e+01 4.0209070172014050e+00 6.1064262577731601e+00 0 0 0
4220 2 7.9780690038397424e+00 1.0215435237990085e+00 7.3597807102197779e+00 0 0 -1
3728 2 9.5013189347889337e+00 2.8945681480850642e+00 7.8378095415575730e+00 0 0 0
1628 1 8.2790764386472606e+00 4.0560477856495680e+00 8.0367676309834515e+00 0 0 0
706 1 1.2452137485819275e+00 1.1538380125122489e+00 6.0398440078050850e+00 0 0 0
2115 1 9.5879439415699519e+00 3.1736198332739102e-01 8.0670098660028593e+00 0 0 0
3513 2 1.8486782898374254e+00 1.6723185694578331e+00 5.7195604617235993e+00 0 0 0
842 1 1.8778179378823203e+00 8.8824196737061267e-01 5.1751232088303984e+00 0 1 0
913 1 2.3460939195549186e+00 1.2688025966594574e+00 6.3277721286531134e+00 0 1 0
517 1 4.9801976304665061e+00 4.5465574874693626e+00 9.2329452004544343e+00 0 0 0
1904 1 7.9598811356760972e+00 1.1688457799923175e+00 5.6203558580219770e+00 0 1 0
3611 2 3.6712620504362028e+00 5.3594816265218015e-01 5.4013555143554992e+00 0 0 1
3752 2 3.2876088335547058e+00 1.3423577255098611e+00 5.7423241719977289e+00 0 0 0
526 1 2.8413745404640762e+00 6.4929297118197438e-01 5.5978219007848296e+00 0 0 -1
1080 1 3.5786216483628484e+00 8.7748287579630291e-01 6.3934430504973205e+00 0 0 0
1514 1 6.1624583654680949e+00 2.8089960744332512e+00 8.8620126026735679e+00 0 0 -1
1128 1 4.2371871361979405e+00 1.2285763137953487e+00 5.6650161931452203e+00 0 0 1
1557 1 9.3197565634531827e+00 3.7626468837852873e+00 8.0606915543869384e+00 0 0 0
2053 1 8.6022604750953455e+00 1.8460071924276227e+00 6.2109974455596815e+00 0 0 0
1683 1 5.1865593471789984e+00 5.5661765864421775e-01 6.3622554844263250e+00 0 0 0
1199 1 5.1287475470121358e+00 1.2423623107662345e+00 5.1911590328478168e+00 0 1 0
3749 2 7.9929157144394098e+00 3.1794672790576657e+00 8.3682175885406291e+00 0 0 0
4122 2 5.9194379287217629e+00 7.2954434996428541e-01 5.2482995995973054e+00 0 0 0
1349 1 6.0652247244746667e+00 2.1788360081056635e-01 5.9910672308119883e+00 0 1 0
889 1 6.7824381969298626e+00 7.5648476159463107e-01 5.1727825295838041e+00 0 1 0
1021 1 7.8293017851171012e+00 2.7291276204406754e+00 9.4429084357117752e+00 0 0 0
1654 1 6.9989854623949368e+00 1.0139869238582064e+00 6.1974128732260274e+00 0 0 0
1139 1 7.6952595090760330e+00 4.7305215125147040e+00 8.5801599141635538e+00 0 0 0
3814 2 7.5877336747033730e-01 2.6818228210238154e-01 6.2821894540737251e+00 0 1 0
3723 2 5.7935501976915136e+00 4.6907786107721243e+00 8.8011528298777097e+00 0 0 0
3670 2 2.1277900768618236e+00 1.6256650842798590e-01 7.4135402455183481e+00 0 1 0
1836 1 5.9336629230843112e+00 2.3207668016204097e-01 8.1843233227823049e+00 0 1 0
1566 1 6.4790427619411552e+00 3.6233295351788701e+00 8.2752485771830138e+00 0 0 0
2619 1 9.9787567024979342e+00 4.2517714438403829e+00 6.9486451209954518e+00 0 0 0
21 1 1.6942510001481126e+00 2.2526548467974767e+00 9.6243350086612871e+00 0 0 -1
695 1 1.1944603178770428e+00 2.1771825145038504e+00 5.9512721323782580e+00 0 0 0
602 1 9.1517126827019424e-01 2.9248781557633996e+00 5.1994929002357173e+00 0 0 0
1814 1 8.5854463407920392e+00 1.2769164075680089e-01 8.4952551132891436e+00 0 1 0
4302 2 1.6265945651343094e+00 2.9672064447313269e+00 5.8985647113627673e+00 1 1 0
1180 1 2.2888757142120908e+00 2.3122059467686684e+00 6.1098794375925101e+00 0 0 0
1482 1 2.8499953813184780e+00 3.0074036334524488e+00 5.2539604302087390e+00 0 0 0
370 1 2.0626259396857307e+00 5.4811683066625450e-01 8.2921692711968387e+00 0 1 0
675 1 2.3591879440512029e+00 3.3590674159933918e+00 6.1931296706936694e+00 0 0 0
676 1 1.9431145217714270e+00 3.5519237299084585e+00 5.2825345581134187e+00 0 0 0
1114 1 3.5197954499152107e+00 2.1517505079768813e+00 5.4070814715004394e+00 0 0 0
1187 1 4.2313396871458240e+00 2.2283730837832350e+00 6.2166076974127868e+00 0 0 0
659 1 3.4220822218677753e+00 2.9667317149072532e+00 6.1344954128269444e+00 0 0 0
3713 2 4.1548557140867839e+00 3.0028165172920582e+00 5.6306378901876970e+00 0 0 0
698 1 3.2091163625578467e+00 1.9321268957731823e+00 6.4234796045964355e+00 0 0 0
1177 1 4.5302887680710944e+00 2.2358427738965689e+00 5.2323406354440749e+00 0 0 0
1853 1 5.1648445585961840e+00 1.6681239846837663e+00 6.1896740067203897e+00 0 1 1
3123 1 5.1846106789311674e+00 2.7765189524455480e+00 5.9781744267426404e+00 1 0 0
3577 2 5.8859495828336836e+00 2.1914138523990991e+00 6.2184825814146913e+00 0 0 -1
1676 1 5.9043995267889295e+00 2.3203685775649596e+00 5.2731741480803400e+00 0 0 0
1647 1 6.0758897640785472e+00 1.4355705001861665e+00 5.8104451366881467e+00 0 0 0
3707 2 6.3132495208172728e+00 1.0857906629122074e+00 9.1999482259405152e+00 0 0 -1
1913 1 3.4656713015860450e+00 1.2581183243349037e+00 4.9059758708894661e+00 0 1 0
1153 1 6.7930381759744698e+00 2.0943521075162033e+00 6.5067341733422053e+00 0 0 0
2494 1 1.1588776683732880e+00 1.6762359066996495e+00 5.0530650357564841e+00 1 0 -1
998 1 7.4295948690206943e+00 4.2808631747593360e+00 6.6070190767449724e+00 0 0 0
574 1 3.3152550505202028e+00 3.8828955522563322e+00 4.8654324060195275e+00 0 0 0
2610 1 9.2531946992449843e+00 2.1641172189671756e+00 8.2224152395465318e+00 0 0 0
1688 1 8.6976107956658524e+00 3.8151751659397459e+00 5.4362845527242172e+00 0 0 0
4231 2 4.9532266908548630e+00 4.5774642073556953e+00 6.5852582472945782e+00 1 0 0
2123 1 8.9655016380122188e+00 6.6776306966034471e-01 5.9638806407761047e+00 0 0 0
1133 1 1.6259279039359411e+00 4.1163954028929339e+00 6.1615807910408380e+00 0 0 0
323 1 2.2614991529888933e+00 3.2585327918436322e+00 9.5066472418050498e+00 0 1 -1
1115 1 7.8952487217587510e+00 3.4226862318777354e+00 6.0470080395089836e+00 0 0 0
601 1 2.6876832660965482e+00 4.3118407253173201e+00 5.7354955662858540e+00 0 0 0
1093 1 3.8132944238179887e+00 3.9560556181885547e+00 5.8291362718835131e+00 0 0 0
4130 2 8.0444795128150517e+00 4.5584948998104791e+00 7.3646042197908601e+00 0 0 -1
2088 1 4.7805712905139064e+00 3.5036887988017034e+00 5.3150553064086736e+00 0 0 0
127 1 4.3933203542787123e+00 3.2190743369851216e+00 6.5051654060686657e+00 0 0 0
784 1 7.1833721485663569e+00 5.7715139845312746e-01 7.2552858717846052e+00 0 1 0
1085 1 5.8803454379478444e+00 3.4701391812652971e+00 5.4904797481939465e+00 0 0 0
3016 1 5.3564085077841126e+00 3.7653776467775177e+00 6.3226012922027470e+00 1 0 0
1184 1 6.4911924206606795e+00 4.0372972579884605e+00 6.1591792162301697e+00 0 0 0
1030 1 6.6975124162050710e+00 2.8416035509458961e+00 5.7255907396267487e+00 0 0 0
1504 1 7.1059249513940870e+00 3.7371411650261273e+00 5.4202893113759050e+00 0 0 0
2071 1 8.3102846309631353e+00 3.7860742388545270e+00 7.0454168928278245e+00 0 0 0
2900 1 9.6143889783372387e+00 4.0208490882421916e-01 7.0099622782943278e+00 0 1 0
4030 2 8.9330796979036240e+00 2.8758106087821895e+00 6.2931617760553324e+00 0 0 0
1498 1 4.3072185164893009e+00 2.4147902516028444e-01 5.9472047652674931e+00 0 0 0
1086 1 8.7447470608488551e+00 3.1062700165383896e+00 8.7805773562058160e+00 0 0 0
1095 1 7.6820733803852770e+00 1.3708010740566681e+00 8.0964663728879120e+00 0 0 0
914 1 2.6652184909239813e+00 2.5957440200981535e-01 9.0593916354270441e+00 0 1 0