LAMMPS data file via write_data, version 12 Dec 2018, timestep = 398640

4320 atoms
2 atom types

0.0000000000000000e+00 1.9309999999999999e+01 xlo xhi
0.0000000000000000e+00 1.9309999999999999e+01 ylo yhi
0.0000000000000000e+00 9.6549999999999994e+00 zlo zhi
5.8316199999999974e+00 0.0000000000000000e+00 0.0000000000000000e+00 xy xz yz

Masses

1 1
2 1

Atoms # atomic

4263 2 5.6110229737277884e+00 4.2954089877560717e+00 2.2281415845158121e+00 1 0 0
513 1 4.0975294587531605e+00 4.5861435982938303e+00 4.7451924463002042e+00 0 0 0
1433 1 9.0017365316999989e+00 4.1384652584407053e+00 1.5235222123769638e+00 0 0 0
2159 1 9.1839940680634307e+00 2.7776191105106958e+00 3.8567877474838843e+00 0 0 0
1684 1 1.0368854860847636e+01 3.0825695322795283e+00 2.3988795049435501e+00 0 0 0
1502 1 7.9295948807945154e+00 4.2749455385626387e+00 1.9376282558638700e+00 0 0 0
4296 2 6.9255671869493769e+00 4.7601203277472859e+00 4.5278017454972437e+00 1 0 0
1441 1 9.3357170419731830e+00 1.5854153343642212e+00 1.4644070841127864e-02 0 0 0
1979 1 8.7825606984564519e+00 2.1134728346185354e+00 2.3759664889617866e+00 0 0 0
851 1 1.3820766789184538e+00 1.4530731327721338e+00 6.1497936522733943e-01 0 1 0
253 1 1.8659250741826956e+00 7.1705760014184350e-01 1.4004356646681817e+00 0 1 0
1190 1 2.2800160833781269e+00 1.6925363662980009e+00 1.2579180150971889e+00 0 0 1
3918 2 2.1091441899651953e+00 1.6973234268348252e+00 3.7381996899193415e-01 0 1 0
30 1 5.5685223526992651e+00 3.7168727779622386e+00 3.9470745552009596e+00 0 0 0
1127 1 2.3051019721339254e+00 8.8507454245830863e-01 2.3716692049345930e-01 0 0 1
1554 1 3.1976696177391419e+00 1.3326204288752530e+00 9.1509201657913275e-01 0 0 1
4116 2 2.6710053291580440e+00 8.9078247458646820e-01 1.6695323864753191e+00 1 0 -1
95 1 3.7073911400865289e+00 5.6873097568006237e-01 1.5990277742131027e+00 0 0 0
2513 1 8.4475638632663568e+00 2.7667727238667611e-01 1.1244307245664384e+00 0 0 0
2275 1 1.0304278962100152e+01 3.3190647439557308e+00 1.3123601305513832e+00 0 1 0
870 1 4.1268629006492530e+00 1.5584217865964964e+00 1.3267937737436224e+00 0 1 1
1798 1 4.8010594309243535e+00 7.8095261388589921e-01 9.4455850098806449e-01 0 1 0
1098 1 7.5206079032482567e+00 1.6821937137276741e+00 1.0758144300081160e-01 0 0 1
1711 1 8.3273123452863409e+00 2.3010085281796080e+00 5.1057051247743113e-01 0 1 0
1615 1 5.7909084663473047e+00 1.0989771864709945e+00 1.0702203853529753e+00 0 0 1
1678 1 8.3068646346402755e+00 2.8167717883288348e+00 3.0726035011334769e+00 0 0 1
987 1 5.0792380328030644e+00 1.5593583128324671e+00 3.1235586173970908e-01 0 0 0
1519 1 8.2364880092805706e+00 2.5490045313937143e-01 2.2225772260314787e+00 0 0 0
1485 1 9.3578247719629424e+00 3.8486753049747563e-01 2.5325073290645168e+00 0 0 0
3468 2 6.9672304024736906e+00 1.0372470746009337e+00 1.1068579953001749e+00 -1 0 1
1538 1 7.9192987352997166e+00 3.2887379929305099e-01 3.2116565839942770e+00 0 0 0
1470 1 8.3774937882218818e+00 2.5647618397483307e+00 1.5336255369057981e+00 0 0 0
744 1 4.9608472711852025e+00 4.7675461887030925e+00 6.7695777455738815e-01 0 1 0
1536 1 6.8587216339037349e+00 4.6856648731441934e+00 1.6456754592203768e+00 0 0 0
115 1 7.6019770700847134e-01 8.2662971148820541e-01 1.3950844493904584e+00 0 0 0
2081 1 9.8970508978023179e+00 2.0428026215987254e+00 3.9097314836457144e+00 0 0 0
2460 1 1.0071533529972019e+01 3.8838481903198132e+00 3.7745645011416191e+00 0 0 0
3590 2 5.5510603663390654e+00 4.6195593026109520e+00 4.1407372955665886e+00 0 0 -1
1160 1 7.5315582182123979e+00 6.1928779979695470e-01 1.5085822049641111e+00 0 0 0
767 1 6.6266906581488811e+00 1.0313934321493790e-01 1.1194088207452104e+00 0 1 0
622 1 1.4046526790325249e+00 3.0814434854722625e+00 8.1353265066778058e-01 0 0 1
3750 2 1.6633523096888481e+00 2.2199279029990091e+00 1.0320692614912164e+00 0 0 1
34 1 2.3994506375519329e+00 2.5053634434230410e+00 6.4264850776692617e-01 0 0 0
1065 1 1.9550535684927453e+00 2.8024590662338920e+00 1.5658772626030169e+00 0 0 0
968 1 3.5334733076884008e+00 2.3178166100369682e+00 6.5551510836709870e-01 0 0 1
3708 2 3.0194498118202628e+00 2.1104288524421770e+00 1.3095567389481269e+00 0 0 0
1166 1 2.9759112601130893e+00 3.0263779760498779e+00 1.2861286886560381e+00 0 0 1
3768 2 3.4048040789005922e+00 3.1846247686061520e+00 5.4150021936024284e-01 0 1 0
3676 2 7.7350324911748940e+00 1.0902304935815608e+00 2.2698981246649672e+00 0 1 1
3757 2 5.0500753204422235e+00 1.5507878481365094e+00 1.2007281525110931e+00 0 0 1
1764 1 4.5808524479314752e+00 2.3283442724616306e+00 8.7206578147423808e-01 0 1 0
1617 1 5.6025602212424737e+00 2.2272508940047162e+00 1.0377719030449970e+00 0 0 1
2174 1 3.7402768697511477e+00 2.2997798621271584e-01 6.1051509625189859e-01 0 1 0
1499 1 6.5624650595177965e+00 1.8645965121284238e+00 9.8760287237390576e-01 0 0 1
1544 1 8.4989604690071641e+00 1.2761449783821208e+00 5.6279039796562513e-01 0 0 0
1946 1 9.6376360500407436e+00 3.8277106391899740e+00 2.2102179233614692e+00 0 0 0
1965 1 8.4750797539679308e+00 1.1950762229114760e+00 1.7773730306781481e+00 0 0 0
1145 1 8.0437775511951450e+00 4.1201321099070674e+00 4.0304871827821582e+00 0 0 0
558 1 9.3889314989237449e-01 2.6797165620174863e+00 2.0032172450405077e+00 0 0 0
4242 2 8.9769937863773919e+00 4.6797196251738926e-01 1.7442674053779068e+00 0 0 1
2048 1 1.0630303670769184e+01 4.3031450136646940e+00 2.3167726364507191e+00 0 0 0
4133 2 9.7111560415277971e+00 4.5401293442968678e+00 4.2937046344492078e+00 0 0 0
4228 2 1.2883990355637354e+00 2.5850136746674768e-01 1.7883275254521755e+00 1 0 0
1513 1 6.4907336060604539e+00 4.0454475089337860e+00 8.8175842554444162e-01 0 0 0
952 1 7.6471842777428840e+00 1.6191990477944365e+00 1.2117754914242156e+00 0 0 0
656 1 2.6799702587300716e+00 3.6694874837510976e+00 5.5094471235125841e-01 0 0 1
3205 1 6.8874503970855372e-01 2.2793857273441511e+00 9.9345891907770978e-01 1 1 0
717 1 1.7551045165605208e+00 4.2639411779967302e+00 7.8744917494637079e-01 0 0 1
2996 1 2.6726152590542189e+00 4.7552797123243113e+00 1.2227683252765604e+00 1 0 0
668 1 2.2961140627378853e+00 3.8121461583283036e+00 1.5815146375164475e+00 0 0 0
2201 1 8.1930872154524561e+00 3.5506988884986690e+00 1.1940444840148550e+00 0 1 0
1472 1 8.6759316003706815e+00 3.4115220832261262e+00 2.2042810443957825e+00 0 0 0
1019 1 4.1862563468331713e+00 3.2962878206234461e+00 1.0629506088983200e+00 0 0 0
1198 1 3.4517490403581572e+00 3.9954765376734183e+00 1.2785290504963147e+00 0 1 0
3627 2 4.2308812542274641e+00 4.2041833217465348e+00 8.8302326563064937e-01 0 0 1
1870 1 7.5783608760878147e+00 6.9243946989712823e-01 5.0351897124671463e-01 0 1 1
3503 2 7.4218287749287892e+00 1.6489457117663664e+00 3.8861278164616326e+00 -1 0 2
567 1 5.3371218503135465e+00 3.1887517399284793e+00 1.2560620973582093e+00 0 0 0
669 1 4.9521463375049173e+00 4.1561084427229318e+00 1.5095023050703984e+00 0 0 1
3865 2 5.5531490113395954e+00 4.0216131160836435e+00 8.4600455583640322e-01 0 0 0
1051 1 4.8837797649461825e+00 3.6756451247074526e+00 4.0209361322411519e-01 0 0 0
1783 1 3.8483472817291604e+00 1.6213274610932091e-01 3.2569706606420024e+00 0 1 0
3588 2 1.8358525243865458e+00 3.8934480215451108e+00 3.7210755984362200e+00 0 0 0
3771 2 8.5271610893613925e+00 3.3209863775902027e+00 3.8428807569565939e+00 0 1 -1
503 1 7.4737302044424005e+00 2.6904761561693160e+00 1.0014822648175945e+00 0 0 0
1506 1 6.4857270783820899e+00 3.0392981434828017e+00 1.1454952250998480e+00 0 0 0
1564 1 7.2736199516292519e+00 3.4724009900073667e+00 3.8755975608234511e-01 0 0 1
1572 1 7.1824285621662662e+00 3.5897892986446860e+00 1.6157292225522124e+00 0 0 1
1671 1 9.1290534977855025e+00 3.0545968294357797e+00 8.6538657040795064e-01 0 0 1
1001 1 6.6955241795654716e+00 2.5766184619087427e+00 1.9386930482088238e-01 0 0 0
2006 1 9.6166481972814477e+00 4.0161238247157449e+00 6.0466875231365114e-01 0 0 0
94 1 1.1479079557668970e+00 5.2480555119604244e-01 3.4447446818308216e+00 0 0 0
2145 1 8.9257985888183864e+00 1.8710471990191835e+00 3.4453192601438949e+00 0 0 0
2468 1 9.1900542260289342e+00 1.9699551715020585e+00 1.1243688356844177e+00 0 0 0
1493 1 9.6907632934399111e+00 1.7129348191046728e-01 4.0389862228011539e+00 0 0 0
2052 1 1.0110323836984104e+01 3.7963758768833840e+00 4.7955349279702428e+00 0 0 -1
2649 1 1.0263247339119811e+01 2.9408936497781011e+00 3.3986695066257759e+00 0 0 0
2108 1 6.2224331756485807e+00 3.1933081043172695e+00 4.6437878376093442e+00 0 0 0
1000 1 1.3315595335390848e+00 1.7522975228053490e+00 1.7173311767133843e+00 0 0 0
4214 2 1.0311389049346324e+00 1.7948107361830330e+00 2.5068426605513929e+00 1 0 0
817 1 1.1670069913852288e+00 9.5397738579211866e-01 2.3704498045040654e+00 0 1 0
159 1 2.1347064048949620e+00 1.3130733586906627e+00 2.2784668059162358e+00 0 0 0
992 1 1.5916991704270522e+00 1.5555852911084791e+00 3.1328697306466604e+00 0 0 0
966 1 2.0465772831244231e+00 6.3971168358360375e-01 3.0609403198163561e+00 0 0 0
1134 1 2.6624820080170082e+00 1.7370792047236450e+00 3.1044550868247995e+00 0 0 1
1040 1 3.2598738445494946e+00 1.3748681268154030e+00 2.0328436539170789e+00 0 0 0
1358 1 2.9296236873021488e+00 6.8603061851175695e-01 2.6023427722728529e+00 0 1 1
1621 1 7.1318878260743999e+00 4.0069245863293430e+00 3.3021594690896436e+00 0 0 0
3878 2 3.8189816660509348e+00 7.4618176772923472e-01 2.5404729722710568e+00 0 0 1
631 1 3.5485110872420114e+00 1.1738402357268591e+00 3.2579626629665142e+00 0 0 0
3756 2 5.1014053526102110e+00 3.3826859287963623e-01 1.6248472465964989e+00 0 0 1
1357 1 4.4805597844022671e+00 2.4271888797536748e-01 2.3524954877949216e+00 0 1 1
575 1 4.6350324764584681e+00 9.8689799298307390e-01 3.0143216649564364e+00 0 0 0
722 1 4.8585720100635426e+00 1.1165948443771592e+00 1.9285366761060805e+00 0 1 0
1147 1 5.4236627356340357e+00 3.2013958569518242e-01 2.8177467113364290e+00 0 0 1
1351 1 6.0838038297360519e+00 5.3725088609502447e-01 2.0084379418188352e+00 0 1 0
3635 2 8.7941221851796545e+00 3.2236528355593236e-01 4.3252318389186808e+00 0 0 1
2538 1 9.3247892744860010e+00 8.7303942059627071e-01 1.0805456719859061e+00 0 0 0
1457 1 9.0066463381466093e+00 3.7282329435087314e+00 3.3540276134643303e+00 0 0 0
955 1 6.3760257570971390e+00 4.5781238794439085e+00 3.7649956737871859e+00 0 0 0
3492 2 3.6126894813007682e-01 4.6399561524943261e-01 2.4949983991366240e+00 0 0 0
1588 1 8.9120701168231165e+00 4.6818100195456358e+00 3.7318044143491069e+00 0 0 0
1071 1 5.9917489388882688e+00 1.2884148959944890e+00 4.6663520495370880e+00 0 0 -1
3847 2 8.0385025797467016e+00 4.5524555064966155e+00 3.2946698122313443e+00 0 0 0
1689 1 8.9510127528495715e+00 2.0596198413854840e+00 4.6485281305068717e+00 0 0 0
3775 2 6.3687807786587705e+00 2.1227004954957465e-01 2.9020626769705746e+00 0 1 0
1526 1 3.7166370479263406e+00 3.0921921527672538e+00 4.6897634186934472e+00 0 0 0
1117 1 3.8299469646401625e+00 3.8780261299370231e+00 1.8168407003819478e-01 0 0 1
166 1 1.0133218479597466e+00 2.4393016284700089e+00 3.2341890895698104e+00 0 0 0
1376 1 1.8140082552163035e+00 2.3666329301490578e+00 2.4607237916394555e+00 0 1 0
3606 2 1.6392404418823823e+00 3.2051627748877642e+00 2.3076779445463740e+00 0 0 0
2941 1 2.5502481931609049e+00 3.2828830767943042e+00 2.3924529705892659e+00 1 0 0
3608 2 2.4204132558548146e+00 2.5186987983865592e+00 3.0131541737455465e+00 0 0 0
3128 1 1.8297601280210505e+00 3.1886827988802988e+00 3.1901157712540993e+00 1 0 0
555 1 2.7346004123297991e+00 2.2640886559465554e+00 2.0620682943887698e+00 0 0 0
505 1 3.7712174675759127e+00 2.4779828146098830e+00 1.7010488966139026e+00 0 0 0
663 1 3.3992723647092822e+00 2.3999422787671163e+00 2.7921323372682201e+00 0 0 0
3686 2 3.3067573254401248e+00 3.1288116267506831e+00 2.1424162742222954e+00 0 1 0
1446 1 4.3541257856971392e+00 2.8043775849202581e+00 2.6517515096830939e+00 0 0 0
568 1 4.1994397903208220e+00 1.8027713685353381e+00 2.4675683876258838e+00 0 0 0
3703 2 4.5490149642895394e+00 2.9785779157834233e+00 1.7502062194362895e+00 0 0 0
3533 2 5.3919677777096986e+00 1.2037170758464695e+00 2.6335783664865886e+00 0 1 0
1462 1 4.8842795359346782e+00 2.1769110934506735e+00 1.8666802092446175e+00 0 0 0
1511 1 5.1683890466108506e+00 2.0387680003775404e+00 2.8925161003647357e+00 0 0 0
1561 1 5.8062955605471318e+00 2.7190645354626510e+00 2.1070273152826413e+00 0 0 0
2197 1 6.2405365736137126e+00 1.1004900401730164e+00 2.8574232929613013e+00 0 1 0
566 1 5.8471782615779420e+00 1.6644110594338832e+00 1.9576172451547282e+00 0 0 0
1437 1 6.8001679290412227e+00 2.4376876335504085e+00 1.9324443271002860e+00 0 0 0
2101 1 6.8718743835566194e+00 1.3970887934438292e+00 1.9275579635253888e+00 0 0 1
3946 2 6.8130270191339761e+00 1.7273558819397152e+00 2.7429027418874146e+00 0 1 0
1721 1 6.1587120473253920e+00 2.1783779951870597e+00 3.0803019427331004e+00 0 1 0
2421 1 7.3199015494129309e+00 2.3248646217737923e+00 3.1670461148606219e+00 0 0 0
2689 1 8.4530557081860156e+00 1.2074882905647513e+00 2.7819148617315084e+00 0 0 0
548 1 5.1684870577986395e+00 2.9813815213803108e+00 4.6862949829934859e+00 0 0 0
1191 1 4.7492468672515802e+00 4.5100992305988621e+00 3.7244813092837159e+00 0 0 0
1696 1 7.0016304074713354e+00 3.8299728863996862e+00 4.3621726174304767e+00 0 0 0
1489 1 9.7633781386016132e+00 1.1760928146682526e+00 3.1960179069119121e+00 0 0 0
2037 1 6.4552224418439250e+00 4.4088164101866241e+00 2.6472017248840789e+00 0 0 0
615 1 1.2971751421107127e+00 3.7953593296206840e+00 1.7297202545719963e+00 0 0 1
2112 1 1.0091424157657951e+01 4.4006893439407779e+00 1.4065358715724534e+00 0 0 0
1029 1 5.6711277636176378e+00 6.1064510188415266e-01 2.1534744220115751e-01 0 0 0
2141 1 7.4842954606078766e+00 4.3337242232022204e+00 9.3088540833371125e-01 0 0 1
1906 1 5.9251398286736663e+00 1.8759694408391481e-02 4.7908584702743653e+00 0 1 0
1562 1 5.8375831478001681e+00 4.6949913312859692e+00 1.4592280009859118e+00 0 0 1
1039 1 3.0373691016389177e+00 4.2301078500580536e+00 2.2491865456645792e+00 0 0 0
4238 2 1.7937663822055370e+00 4.5111515596593366e+00 1.6522018147149848e+00 1 0 0
3619 2 2.5781871311106817e+00 3.7611915278493799e+00 3.1576200490029209e+00 0 0 1
586 1 1.9314408687989171e+00 4.1581062836379132e+00 2.6596817961188091e+00 0 0 0
2132 1 8.9315228703298537e+00 5.3732172953323154e-01 3.4856026830394189e+00 0 0 0
1682 1 6.6181400813566178e+00 3.0782199395431542e+00 3.6711358658487265e+00 0 0 0
1440 1 3.4440790471596214e+00 3.4791322492675110e+00 2.9352975365616802e+00 0 0 0
664 1 4.1022651359782225e+00 3.7019211586223961e+00 2.0991269178087935e+00 0 0 0
550 1 3.7927095805428057e+00 4.5109976959569753e+00 3.0120419791379054e+00 0 0 0
655 1 4.7298999266591739e+00 4.5025348296188765e+00 2.5121123597348736e+00 0 0 1
994 1 4.6019637235435535e+00 3.6405776919134514e+00 3.2076975651469235e+00 0 0 0
1428 1 6.1759096672389209e+00 3.7620276518549360e+00 1.8847717878120700e+00 0 0 0
1613 1 9.1217830513880642e+00 3.8271953226638944e+00 4.3663129823568552e+00 0 0 0
534 1 5.7270226005170377e+00 3.1014310172509214e+00 3.0501810481478664e+00 0 0 0
1271 1 5.1818015548009333e+00 3.5410594130014283e+00 2.2942659625489794e+00 0 1 0
1474 1 9.6895870057694715e+00 4.4776337158285511e+00 2.9498335285850161e+00 0 0 0
3838 2 6.2385883331284919e+00 3.8371949656144944e+00 3.4343062996531364e+00 0 0 0
3127 1 2.5645839011161087e+00 4.0447386723228007e+00 4.0445670222947632e+00 1 0 0
1072 1 7.6428490158786753e+00 3.0074333670764131e+00 2.2846560568447756e+00 0 0 0
1535 1 6.7026904420550650e+00 3.2920139566836459e+00 2.6598689271208067e+00 0 0 0
3964 2 7.3901855420004043e+00 3.1630514378293269e+00 3.1370463918233940e+00 0 1 0
1858 1 7.1926658705409112e+00 1.1066908544803307e+00 4.5207230342604481e+00 0 1 0
1103 1 7.8388491747008695e+00 3.1717203240849851e-01 4.3352619503041385e+00 0 0 0
2076 1 7.4425146535373834e+00 1.2981076512990393e+00 3.1019032452389332e+00 0 0 1
2592 1 1.0503713292868632e+01 4.7166627528470295e+00 4.4173223720770496e+00 0 0 0
1031 1 1.0744416492121161e+01 4.0200049593495022e+00 6.5373902699512898e-01 0 0 0
1607 1 8.4795879040508630e+00 4.3969023873038751e+00 5.3691576935794350e-01 0 0 1
599 1 2.2144103571334153e+00 4.8506838368682414e-01 4.1092539690402523e+00 0 0 0
4129 2 1.0133767574635286e+01 3.7153283253239162e+00 2.9470158254096326e+00 1 0 1
242 1 2.7732360488521257e+00 2.4682623442437390e-01 1.0500790407498126e+00 0 0 1
628 1 6.1328948419046858e+00 4.2566181981829727e+00 4.7054787124601631e+00 0 0 0
2631 1 9.9632580687556320e+00 2.0743115002879811e+00 2.6671505330146865e+00 0 0 0
232 1 1.3936023489494385e+00 4.1510553639964325e+00 4.3735392891737570e+00 0 0 0
1880 1 8.0218993600751709e+00 3.7502302444296900e+00 3.0115948449197325e+00 0 0 0
1584 1 8.9181092599692879e-01 1.4586269843483552e+00 3.9148049526475677e+00 0 0 0
3464 2 1.6881218824740218e+00 1.1130049991012996e+00 3.9064813348803713e+00 0 0 -1
652 1 1.7960389084578918e+00 1.6748769417728067e+00 4.5443658587474927e+00 0 0 0
1622 1 7.6858571616387845e+00 3.1760769784819329e+00 3.9598488932316398e+00 0 0 0
991 1 7.0543482839316516e+00 5.0790525251099228e-01 2.4397644171757795e+00 0 0 0
4264 2 2.8123075159189934e+00 8.3194052234473581e-01 3.5555020458839701e+00 1 0 1
1054 1 3.4078825525397614e+00 5.3041243850763797e-01 4.0502046194598718e+00 0 0 0
481 1 2.6757566469926415e+00 1.4385572225317773e+00 4.0880157371670665e+00 0 0 0
235 1 4.3055791553324889e+00 1.0772818373696098e+00 4.0453612115058002e+00 0 0 0
887 1 1.1220961783969241e+00 5.6372850421663001e-01 4.4547908689162687e+00 0 1 0
3856 2 5.0408309671020310e+00 2.2291207233766627e-01 3.6034950054997874e+00 0 0 0
2360 1 5.2071882907063261e+00 6.5466001109416960e-01 4.3386635827681781e+00 0 1 0
1066 1 1.0027631856648000e+01 2.4909103722924786e+00 6.4541865678073640e-01 0 0 0
3587 2 7.2286736189163907e+00 4.0467405754107535e+00 2.4619720344787743e+00 0 0 0
1950 1 6.9191465305837676e+00 5.4113232855667615e-01 3.5668977121047334e+00 0 0 0
4029 2 6.4451994260975720e+00 6.0020820155418186e-01 4.2885741930550738e+00 0 1 0
580 1 5.9285284582828810e+00 2.4552483311599230e-01 3.7213989428439236e+00 0 0 0
2084 1 8.3346726949004193e+00 3.4086960564628672e+00 4.6957151791054322e-02 0 0 1
3622 2 4.9155593216800142e-01 1.4171843257819949e+00 6.5757843304702124e-01 0 0 1
1425 1 8.0638978558911116e+00 2.1834226917729054e+00 3.9692868270334642e+00 0 1 0
1022 1 2.6842921162169509e+00 4.7034516688201871e+00 3.2323479662469468e+00 0 0 -1
1242 1 3.9677584909673946e+00 1.4000440643640644e+00 1.8100990523666990e-01 0 1 0
906 1 7.7516974276086836e+00 1.9322271329720766e+00 2.2992981168291626e+00 0 1 0
50 1 4.1409526744269947e+00 4.6711016883810190e+00 1.7004186593533808e+00 0 0 0
3772 2 1.5643639775734668e+00 6.2979841470831044e-01 5.5405301044083177e-01 0 1 1
577 1 2.3953452069973071e+00 1.3417311661066975e-01 1.9373222915120083e+00 0 0 0
1359 1 6.6102803812573487e+00 9.6839902901717778e-01 3.6091848845385976e-01 0 1 1
2854 1 9.3462675300213860e+00 1.1401436749754328e+00 4.2849177816690860e+00 0 1 0
3482 2 7.7946597118428302e+00 4.1139721881605125e+00 9.5128097829263986e-02 0 0 1
3040 1 3.0257582272093027e+00 4.5916549672902525e+00 1.6925134155174359e-01 1 0 0
2131 1 1.0881987123203393e+01 4.7929296621050463e+00 3.2871416452537576e+00 0 0 0
543 1 1.0819497830053364e+00 2.5327905477812842e+00 4.2989440370379386e+00 0 0 0
1165 1 1.9578570462547638e+00 2.3004441012501218e+00 3.7503270236510651e+00 0 0 0
802 1 1.9280209081590534e+00 3.2013662534525871e+00 4.3120430651877459e+00 0 1 0
572 1 2.7718221139839700e+00 3.0219811949774384e+00 3.5968699348366937e+00 0 0 0
1167 1 2.6103251023186727e+00 2.4940433144744034e+00 4.5189640254851433e+00 0 0 0
624 1 6.0509298636457141e+00 1.7989209043233723e+00 1.8192653587119027e-02 0 0 1
3719 2 2.9146811306634057e+00 3.3236172982205465e+00 4.4422781664872391e+00 0 0 -1
4119 2 3.0625773433729502e+00 2.2055588880450223e+00 3.7052687707626553e+00 0 0 0
1007 1 3.6503345752786061e+00 2.0309261494974415e+00 4.3466817370314850e+00 0 0 0
2164 1 3.8136259739613303e+00 2.8474732818500397e+00 3.6526389963328052e+00 0 0 1
3884 2 4.3623224700447478e+00 2.6292528150693562e+00 4.2939933726242989e+00 0 0 1
1062 1 4.3105837737801700e+00 1.9476561150466467e+00 3.5087197035850566e+00 0 0 0
1194 1 5.4382038733354108e+00 1.2810335441522485e+00 3.5605644396801210e+00 0 1 0
814 1 4.9851405181341422e+00 1.8209570082615445e+00 4.4540628368403805e+00 0 1 0
1081 1 5.0251768649650774e+00 2.7087368326067596e+00 3.6521541564658406e+00 0 0 1
860 1 5.9028151878668744e+00 2.3396510795098564e+00 4.1347107716157119e+00 0 1 1
3460 2 8.1017579414404057e+00 1.8749677264932740e+00 3.1884064023825101e+00 -1 0 0
2250 1 8.2107266690208878e+00 1.1929554807129674e+00 3.8967798852798663e+00 0 1 0
2098 1 5.8904725105707572e+00 3.2911301736725522e+00 3.5056708940949549e-01 0 0 1
1573 1 6.5448119263766662e+00 1.5122650137052731e+00 3.8536229613655775e+00 0 0 0
537 1 7.0065906073869453e+00 2.3400530206920727e+00 4.3174620282846243e+00 0 0 0
508 1 5.5151106602569326e+00 4.2872576182930509e+00 3.0651644081009524e+00 0 0 0
964 1 9.5069461814693259e+00 2.7578845727889232e+00 1.8363423070201208e+00 0 0 0
2063 1 9.4052689924690309e+00 2.9339684505173840e+00 2.8692760577565881e+00 0 0 0
124 1 4.5562193948217811e+00 3.5914708130428261e+00 4.2216118564279652e+00 0 0 0
137 1 6.7634690321695468e-01 6.7736949831384341e-01 3.1536665923064872e-01 0 0 1
1505 1 3.5882506654023727e+00 3.8334091608786762e+00 3.8794865019877429e+00 0 0 0
3867 2 8.5789384687063119e+00 4.4310180227210942e+00 4.6016662497995018e+00 0 0 0
1137 1 8.6609693630420246e+00 4.4744631617084929e+00 2.6530266903704969e+00 0 0 1
3121 1 8.4763534458348850e+00 3.0273897344964866e+00 4.6081724382795040e+00 0 0 0
2850 1 9.4843653968430317e+00 1.3657990458961158e+00 2.0097762737536367e+00 0 1 0
1988 1 1.0204604294146343e+01 1.9442726697428194e+00 1.5840084904338132e+00 0 0 0
715 1 3.7115910993646239e-01 1.2107611682808928e+00 2.9580283670905829e+00 0 0 0
1488 1 5.8808187567763879e+00 4.3340852808259731e+00 6.4474969553799125e-02 0 0 0
4281 2 9.8370086936509118e+00 9.0514890924133984e-01 7.3581816465334696e-02 0 1 0
1531 1 7.0427319803009363e+00 1.4019630243045400e-02 6.2187993543570139e-03 0 0 1
691 1 3.4184072462907937e+00 4.8234728125787623e+00 3.9567925899437686e+00 0 0 0
474 1 2.0061790341127064e-01 4.5140067288700358e-01 3.7791555572497151e+00 0 1 0
4208 2 1.1209002983885208e+00 3.3327619161871627e+00 4.6321533450076320e+00 1 0 0
1050 1 5.2185327067896505e+00 2.5758974719546317e+00 1.2217909964012735e-01 0 0 0
21 1 1.5377113523036141e+00 2.3205235210401898e+00 3.5373669834308917e-02 0 0 0
733 1 4.1493042138043945e+00 2.8248293138896314e+00 4.9415203659861705e-02 0 1 0
1571 1 7.4774933486981654e+00 4.8246159231012937e+00 2.6978919046253549e+00 0 0 0
3565 2 7.7723928640057487e+00 3.7167468051192509e+00 4.8195986025613582e+00 0 0 0
2100 1 9.3854073965562055e+00 3.2339244974936010e+00 5.8535214403197688e+00 0 0 0
1626 1 6.2370153730535787e+00 2.7823925446254610e-01 9.1012747641118992e+00 0 0 0
617 1 5.4725522300942497e+00 4.2970725160942296e+00 7.9053211109531762e+00 0 0 0
1171 1 8.4846718320246577e+00 2.6407683485671916e+00 5.5605013418214488e+00 0 0 0
1069 1 2.4582123570965986e+00 1.6796230450081018e+00 5.3512108984231057e+00 0 0 0
1082 1 1.0404750519226413e+01 2.7168035114051063e+00 5.6451400333482953e+00 0 0 0
3584 2 1.1381528108023151e+00 1.2739437136039455e+00 9.4720607340146721e+00 0 0 0
2038 1 1.0346573978562216e+01 3.8121745375140415e+00 5.8765431669367327e+00 0 0 0
4220 2 7.7876537728627175e+00 1.1204653173860273e+00 7.4059671308336963e+00 0 0 -1
3728 2 9.3996415684549337e+00 2.7731288595461998e+00 7.6981347651393452e+00 0 0 0
1628 1 8.0208966723063853e+00 3.8895377807739715e+00 8.0467907620096000e+00 0 0 0
706 1 9.2044339574964540e-01 1.2655062028651676e+00 6.1003336351161543e+00 0 0 0
1518 1 7.6356437529852936e+00 4.5775386640110014e+00 5.0733345847040390e+00 0 0 0
3513 2 1.5864359022253098e+00 1.8403894115571056e+00 5.5658391657510462e+00 0 0 0
842 1 1.6086666229250326e+00 1.0021172505064746e+00 5.3246112078626453e+00 0 1 0
913 1 2.0194924895227038e+00 1.3180001987716272e+00 6.2684378807185288e+00 0 1 0
517 1 4.6065846971828117e+00 4.4185315768333675e+00 9.3639258046717586e+00 0 0 0
1904 1 7.6196636195418650e+00 1.0998553379869376e+00 5.6378755264114098e+00 0 1 0
3611 2 3.3722955152366527e+00 4.2414635695603198e-01 5.5443384027824143e+00 0 0 1
3752 2 3.1949283644991251e+00 1.3770939408346037e+00 5.7251026395640832e+00 0 0 0
526 1 2.5719513146130568e+00 6.8778317031791725e-01 5.6920345219370212e+00 0 0 -1
1080 1 3.3602272980278092e+00 8.0206167740257761e-01 6.3793894860375557e+00 0 0 0
1514 1 5.9195086969420041e+00 2.7131919255169272e+00 8.9798413352011988e+00 0 0 -1
1128 1 4.0342604078899305e+00 1.3131765665062272e+00 5.7169814945338135e+00 0 0 1
1557 1 9.0833413077399570e+00 3.6595456352535214e+00 8.1147774498146017e+00 0 0 0
2053 1 8.5866657394135260e+00 1.7386826550693812e+00 6.1229608525618096e+00 0 0 0
1683 1 5.0383207090067366e+00 6.2341565184218184e-01 6.2238141911017157e+00 0 0 0
1199 1 4.9896882240707843e+00 1.1373113578485168e+00 5.2751212141603370e+00 0 1 0
3749 2 7.7441527173038303e+00 3.0797241569046871e+00 8.3066443566717165e+00 0 0 0
4122 2 5.7323893066353122e+00 7.2864105649002664e-01 5.2456750550706195e+00 0 0 0
1349 1 5.9621092778417344e+00 2.6334617729636584e-01 5.9355890859550344e+00 0 1 0
889 1 6.6638708795173240e+00 5.8215007375794658e-01 5.2597488449932355e+00 0 1 0
1021 1 7.5853145684023975e+00 2.6713982435157946e+00 9.3325309737478630e+00 0 0 0
1654 1 6.7349267149872745e+00 1.0395584528402444e+00 6.2931949359198596e+00 0 0 0
3386 1 4.0659806163919121e-01 8.9850765955610390e-01 7.1460024739340824e+00 1 1 0
3814 2 4.3884907158786035e-01 5.4070022512652050e-01 6.3833693056534910e+00 0 1 0
1549 1 9.2954235810288548e+00 1.3288080760678667e-01 5.0316300816393529e+00 0 0 0
2612 1 1.0064354675441528e+01 1.9382754575612107e+00 8.3485402869660366e+00 0 0 0
2900 1 9.5371920381860047e+00 4.1418478765133648e-01 7.0393992211357883e+00 0 1 0
1566 1 6.0695092053734543e+00 3.4185500587746080e+00 8.2325548177953394e+00 0 0 0
2619 1 9.8201308342923177e+00 4.1257873669827969e+00 6.7795731781480866e+00 0 0 0
592 1 5.1549351552272582e-01 8.9645748314971563e-01 8.8312566355573701e+00 0 0 -1
695 1 1.0748187524428534e+00 2.3921208583560798e+00 5.9915156997792911e+00 0 0 0
3975 2 1.0627593837720807e+01 3.7751214788104908e+00 7.1720391914514829e+00 0 0 -1
3761 2 6.3920180921629619e+00 4.5181857484292918e+00 7.0381680494426009e+00 0 0 0
4302 2 1.2301142727349610e+00 3.2826115718348183e+00 6.0128043399431128e+00 1 1 0
1180 1 2.1506709813215137e+00 2.3637180803254934e+00 6.0821297193012471e+00 0 0 0
1482 1 2.6862717237911822e+00 3.2315282731015778e+00 5.2470235350549821e+00 0 0 0
370 1 1.8117155799036677e+00 3.9554385039463669e-01 8.1609966327156567e+00 0 1 0
675 1 2.0788154236543415e+00 3.3497753570105355e+00 6.2246662447130676e+00 0 0 0
676 1 1.6206025608000143e+00 3.6117714527473330e+00 5.2748159417557492e+00 0 0 0
1114 1 3.3382504240269597e+00 2.1725451813695966e+00 5.3031929657006991e+00 0 0 0
1187 1 3.9915510086557489e+00 2.2934660706008896e+00 6.1866561540021650e+00 0 0 0
659 1 3.0911759711053510e+00 2.9057765570077954e+00 6.1278889118039519e+00 0 0 0
3713 2 3.8879213113227542e+00 3.0024287107724987e+00 5.6189599229000109e+00 0 0 0
698 1 3.0254665604954525e+00 1.9177183458658507e+00 6.4937226072695813e+00 0 0 0
1177 1 4.3905153541936057e+00 2.3817213543490570e+00 5.1604502922726105e+00 0 0 0
1853 1 4.9268339427733547e+00 1.7837585375572822e+00 6.1567573935981850e+00 0 1 1
3123 1 5.0694774832532152e+00 2.7893073690786689e+00 5.9005403884370100e+00 1 0 0
3577 2 5.7598316144585251e+00 2.1693176333981508e+00 6.0926614465396458e+00 0 0 -1
1676 1 5.6750077842597859e+00 2.2213574869811867e+00 5.1948662446331326e+00 0 0 0
1647 1 5.8698473944153307e+00 1.3629322665211006e+00 5.7890143721169887e+00 0 0 0
3707 2 6.3630425455164605e+00 1.1521005140101503e+00 9.2188988303045321e+00 0 0 -1
1438 1 8.2737458629903369e+00 4.5301702137477831e+00 9.0428502161112991e+00 0 0 -1
1153 1 6.5556441802092325e+00 2.0682311316121633e+00 6.4574939402745350e+00 0 0 0
1578 1 1.0560568814239728e+01 4.4599436958455874e+00 7.7025879338760399e+00 0 0 0
998 1 7.1670205156146727e+00 4.2142140386963636e+00 6.5601077072892497e+00 0 0 0
1694 1 9.5076283108708388e+00 2.8963813018557389e+00 4.8524540174264157e+00 0 0 0
2610 1 8.9070073861900099e+00 2.1994178513960945e+00 8.1880209206931944e+00 0 0 0
1688 1 8.6397004036350289e+00 3.6882959417170396e+00 5.3170833816628864e+00 0 0 0
3723 2 5.3782109716553839e+00 4.5627516384315667e+00 8.8672796853354061e+00 0 0 0
2123 1 8.6366755698275828e+00 6.3531574113533285e-01 5.8920489831321605e+00 0 0 0
1133 1 1.4762736539705972e+00 4.2030665107951615e+00 6.0887377999876851e+00 0 0 0
975 1 8.4099273859419093e+00 1.0158694546249085e+00 4.9002515822802897e+00 0 0 0
1115 1 7.7580775204744361e+00 3.4971803109247008e+00 6.0339810426214173e+00 0 0 0
601 1 2.5927486051495556e+00 4.2735491528760807e+00 5.7128338653152291e+00 0 0 0
1093 1 3.5452027992303163e+00 3.7977925029151134e+00 5.8588864005620644e+00 0 0 0
4130 2 7.6385952538187070e+00 4.4437334792256227e+00 7.4240628310606054e+00 0 0 -1
2088 1 4.5502337264557600e+00 3.5735626836756151e+00 5.2607191077736459e+00 0 0 0
127 1 4.1932458288192098e+00 3.3107520577337568e+00 6.4379684582729197e+00 0 0 0
784 1 7.0223629897764557e+00 6.7174873310374617e-01 7.2319425776784634e+00 0 1 0
1085 1 5.6098847650746411e+00 3.5837269964855811e+00 5.4680084202772665e+00 0 0 0
3016 1 5.0763171709213397e+00 3.8366037974897678e+00 6.3564297598397292e+00 1 0 0
1184 1 6.2617666283441817e+00 4.0307668843841009e+00 6.3098151663743094e+00 0 0 0
1030 1 6.4591427176238128e+00 2.7448603116318671e+00 5.6260559453184680e+00 0 0 0
1504 1 6.8361185358037488e+00 3.9286641995920157e+00 5.3990648293821764e+00 0 0 0
2071 1 8.1135666335988716e+00 3.7360760875417451e+00 7.0089965897168263e+00 0 0 0
971 1 9.1316987787615744e+00 2.6798140843772331e+00 9.5555579682826597e+00 0 0 -1
4030 2 8.5865965853681843e+00 3.2685256833695475e+00 6.3128589312801910e+00 0 0 0