LAMMPS data file via write_data, version 12 Dec 2018, timestep = 64680

4320 atoms
2 atom types

0.0000000000000000e+00 1.9309999999999999e+01 xlo xhi
0.0000000000000000e+00 1.9309999999999999e+01 ylo yhi
0.0000000000000000e+00 9.6549999999999994e+00 zlo zhi
9.4619000000000142e-01 0.0000000000000000e+00 0.0000000000000000e+00 xy xz yz

Masses

1 1
2 1

Atoms # atomic

597 1 6.3645045974688619e-01 5.4799759863701714e-01 3.6132265575121925e-01 0 0 0
237 1 4.4500049451797591e-01 1.0610647738102250e+00 1.2565560902645525e+00 0 0 0
137 1 2.6349232768067665e+00 3.4197191378232944e-01 6.3184748445977504e-02 0 0 1
1218 1 1.4084004952537046e+00 7.4835029101277861e-01 1.0943485881795749e+00 0 1 0
3622 2 2.1799853452418154e+00 9.2035804755961459e-01 6.8859646086007664e-01 0 0 1
1042 1 2.7422138375348020e+00 4.4930343099140222e+00 1.2001518268017823e-01 0 0 0
967 1 1.5152067422594044e+00 1.6558382415230093e+00 5.0574691334968591e-01 0 0 0
3205 1 2.4654223224723335e+00 1.7290405528040935e+00 9.5685532788663274e-01 1 1 0
50 1 5.4500603348441592e+00 4.7297441534346518e+00 1.6034798327796072e+00 0 0 0
851 1 3.3213345111521182e+00 1.1174658676643412e+00 4.6695451261728010e-01 0 1 0
253 1 3.8013046350604873e+00 5.6542198803241817e-01 1.2183453836696556e+00 0 1 0
1190 1 4.2297536673550269e+00 1.5195471208449907e+00 1.1447727304504944e+00 0 0 1
3918 2 3.9661378115908943e+00 1.5488510672674800e+00 1.3650483828957788e-01 0 1 0
30 1 7.0174728536889361e+00 4.0001803640366989e+00 3.9076573901655722e+00 0 0 0
1127 1 4.2734610314650601e+00 7.6250034898950503e-01 1.7873552419815525e-01 0 0 1
1554 1 5.1576041745041099e+00 1.1722321825727435e+00 8.3012299944302637e-01 0 0 1
4116 2 4.6459591359790799e+00 7.9487623982587341e-01 1.5003106874546519e+00 1 0 -1
95 1 5.7917066626484992e+00 6.6463015058792263e-01 1.5077111659872113e+00 0 0 0
2174 1 5.8773168389300023e+00 3.7789827434310141e-01 5.1840866602919078e-01 0 1 0
3602 2 8.2325482651531896e+00 1.3063306716517603e-01 3.9028141137218708e+00 0 0 0
870 1 6.0776719591273993e+00 1.6491725530386507e+00 1.2360636590062768e+00 0 1 1
1798 1 6.7723733052829109e+00 8.8308304520776870e-01 9.5228106396081846e-01 0 1 0
3021 1 2.6048084486732798e-01 4.3701672036050425e+00 3.9056354164809037e+00 1 0 0
840 1 8.9952881115420946e-01 4.7503589269637354e+00 1.0829687966776913e+00 0 1 1
1615 1 7.6914349189245144e+00 1.4179559637855461e+00 1.0965678023847427e+00 0 0 1
1458 1 7.6529467842115535e+00 3.2710337219518965e-01 9.8304071234242929e-01 0 0 0
3793 2 8.4344283812236327e+00 6.6158852325548934e-01 2.9254372218404118e-01 0 1 0
767 1 8.6910863499967181e+00 5.2757756706881442e-01 1.2042508098058735e+00 0 1 0
1359 1 8.4654531918421068e+00 1.5519693012799822e+00 2.6212417715636349e-01 0 1 1
3468 2 8.7265379279288826e+00 1.4542979791170891e+00 1.1798790900725638e+00 -1 0 1
465 1 5.9801964375044336e-01 1.9929781120774639e+00 8.2706488679679935e-01 0 1 1
4250 2 2.6107197960356987e+00 4.6502483416187177e+00 4.3859441505625005e+00 1 0 1
657 1 6.4196569444726637e-01 3.0041979109523957e+00 6.0229351462904945e-01 0 0 1
708 1 9.2748367141828503e-01 2.6428441800598952e+00 1.5153829495254776e+00 0 0 1
115 1 2.7460361972353833e+00 3.8642319721576351e-01 1.0857855767897362e+00 0 0 0
3478 2 1.2984177635342322e+00 2.4755510971945025e+00 6.8629837571889607e-01 0 0 -1
254 1 2.0419655282134501e+00 2.7520713550654836e+00 1.2499951102473661e+00 0 1 0
2960 1 1.5026642836790336e+00 1.7474311867890784e+00 1.5441168569963062e+00 1 0 0
1160 1 9.5196755004394191e+00 1.1968457394591112e+00 1.5142158735209794e+00 0 0 0
3599 2 2.5298993300356498e+00 3.3595376032228921e+00 7.4701959296490161e-01 0 0 0
622 1 3.1385937063101665e+00 2.7586061395365555e+00 6.7078341783371942e-01 0 0 1
3750 2 3.3134385627673497e+00 1.8576350819077074e+00 8.0152946678589265e-01 0 0 1
34 1 4.1264100943778725e+00 2.3772982119537249e+00 4.8201548836404745e-01 0 0 0
1065 1 3.6189152771674524e+00 2.3896717388253701e+00 1.4507116692940567e+00 0 0 0
968 1 5.2062661853701959e+00 2.3531218724535354e+00 5.2011641537572395e-01 0 0 1
3708 2 5.0102177559610492e+00 1.9789975739011634e+00 1.2979029755454430e+00 0 0 0
1166 1 4.7157745523299583e+00 2.8418235801877860e+00 1.2720213456531282e+00 0 0 1
3768 2 5.0445468080105220e+00 3.2129718918945489e+00 4.0153310817542204e-01 0 1 0
1785 1 8.7117526274241062e+00 1.4369790481314873e-01 2.2116017977309088e+00 0 1 0
3757 2 6.9488424927052455e+00 1.8471097082074865e+00 1.1767618006206999e+00 0 0 1
1764 1 6.2525918820898969e+00 2.5274585109277536e+00 7.0390387208472416e-01 0 1 0
1617 1 7.4201777095409955e+00 2.4990471553787414e+00 8.5566793054245482e-01 0 0 1
2064 1 2.1376011583785401e+00 2.4914641703784541e+00 1.9605925324983492e-01 1 0 1
1499 1 8.4287526565746163e+00 2.2881229536258330e+00 9.8770380594582241e-01 0 0 1
3056 1 5.6508802434363500e-02 2.7146777941194145e-01 1.9369498118416553e+00 1 0 0
497 1 1.1847406460147638e+00 3.6850139144781946e+00 1.2079044437578665e+00 0 0 0
4042 2 4.4962526240725298e+00 8.1419434564716398e-01 4.7476180810611757e+00 0 1 0
1531 1 9.2061270742625521e+00 6.7529838696216171e-01 4.2631751844164532e-02 0 0 1
987 1 6.8893917613431146e+00 1.7039827835464159e+00 2.5565643411388050e-01 0 0 0
2731 1 2.9004062824456528e-01 1.4099571139435779e-01 2.9949941183382291e+00 1 1 0
3085 1 1.6396102174240281e+00 3.3857292535334511e+00 3.4789105329299647e-01 1 0 1
3799 2 1.5158354567645649e+00 4.1846978124046146e+00 6.1370432529076702e-01 0 1 0
171 1 2.2490078227643902e+00 4.0921381689192007e+00 1.0698647838689168e+00 0 0 1
57 1 1.8112839945195363e+00 1.4293871563381249e+00 4.6533409258412819e+00 0 0 0
952 1 9.4570722567001155e+00 2.2692106445914546e+00 1.2662753025305085e+00 0 0 0
656 1 4.2329141742680303e+00 3.4031769580563100e+00 4.7666025492557651e-01 0 0 1
2996 1 3.9678013024426462e+00 4.5427522715505342e+00 1.1552599566767487e+00 1 0 0
717 1 3.3092110336039955e+00 3.8902320129932280e+00 6.9896858224758618e-01 0 0 1
242 1 4.8120343866443811e+00 1.4969879695565369e-01 9.2078451015085672e-01 0 0 1
668 1 3.9407782052750320e+00 3.4942078451178507e+00 1.5313582564173343e+00 0 0 0
2201 1 9.4636528210956303e+00 4.1839870642294938e+00 1.0716952030138978e+00 0 1 0
778 1 3.2963812687644223e-01 2.6514953849157381e+00 2.3918807846292931e+00 0 1 0
1019 1 5.7785663122225683e+00 3.4141939841800077e+00 9.4986848407236790e-01 0 0 0
1198 1 4.9158123155294717e+00 3.9565923157454392e+00 9.8956078274019710e-01 0 1 0
3627 2 5.6669276752970568e+00 4.3401254411745951e+00 7.7950974850831301e-01 0 0 1
1870 1 9.4635893483831666e+00 1.5161464043875830e+00 5.2686025563403893e-01 0 1 1
3503 2 9.2397164159232261e+00 2.4772629088168867e+00 3.7541845953097064e+00 -1 0 2
567 1 6.8561877903471959e+00 3.3946888154805706e+00 1.0379886509357410e+00 0 0 0
669 1 6.3547351973773516e+00 4.3116046252122215e+00 1.3569724692971112e+00 0 0 1
3865 2 6.9870325753018152e+00 4.3837767564743695e+00 7.4271531857675099e-01 0 0 0
1051 1 6.4242843224909860e+00 3.9583990728387439e+00 2.4256087501604373e-01 0 0 0
2098 1 7.4767846335997952e+00 3.8333599461424979e+00 2.5768609520177871e-01 0 0 1
3772 2 3.5275341734835974e+00 2.4953867660233595e-01 4.1489846651810042e-01 0 1 1
1513 1 7.8730535213492958e+00 4.6879208952271210e+00 7.6790176002861310e-01 0 0 0
503 1 9.0485912063827545e+00 3.2457336580001219e+00 9.6838183118307719e-01 0 0 0
1506 1 7.9878464264263540e+00 3.3377665107709071e+00 1.1107093767158718e+00 0 0 0
1564 1 8.7464251649138163e+00 4.1031245102312761e+00 2.9542248227464440e-01 0 0 1
1572 1 8.4499732404533070e+00 4.2214234062625300e+00 1.4794522456531216e+00 0 0 1
4278 2 1.1871309887988917e+00 4.6809244549341003e+00 3.8414698216237082e+00 1 1 -1
180 1 7.9460124227014572e-01 4.0379125743543058e+00 1.6516806010042254e-01 0 0 1
3516 2 2.3199658412868360e-01 8.7187858688071795e-01 2.5717668025571365e+00 0 0 0
1029 1 7.5600047914523723e+00 9.2788136031863599e-01 1.8789765282216600e-01 0 0 0
140 1 9.8439209059486321e-01 7.5134808658058583e-01 2.0559733207214790e+00 0 0 0
135 1 6.6023584820360681e-01 1.6559469500827237e+00 2.5970901456650610e+00 0 0 1
520 1 2.2503614029935117e+00 1.0480926932038150e+00 1.7027590708739861e+00 0 0 0
3167 1 1.1540938607065567e+00 6.8393169489852956e-01 3.0609480125152428e+00 1 0 1
715 1 2.3583887069461658e+00 7.3180913448016649e-01 2.8697793058979260e+00 0 0 0
3587 2 8.6843131480939650e+00 4.5069348996132774e+00 2.2372429927478445e+00 0 0 0
1000 1 3.2613254839069987e+00 1.3914123144841806e+00 1.5781459478587938e+00 0 0 0
4214 2 2.8222044545517666e+00 1.4351651356331649e+00 2.4441958192573279e+00 1 0 0
817 1 3.2186662614576140e+00 5.0811350471639860e-01 2.2287923812442392e+00 0 1 0
159 1 4.0665862421362604e+00 1.0768414743734445e+00 2.0994833137385021e+00 0 0 0
992 1 3.3319910349685959e+00 1.2231871954186775e+00 3.0432782824849101e+00 0 0 0
966 1 4.0193726211922760e+00 2.9162507233682705e-01 2.9385669243343431e+00 0 0 0
1134 1 4.4289352637416162e+00 1.3745908666545796e+00 2.9676641752965081e+00 0 0 1
1040 1 5.1815873730698341e+00 1.3617947896868721e+00 1.8998743797316351e+00 0 0 0
1358 1 4.9526928000179353e+00 5.2152417686486940e-01 2.4696406241583029e+00 0 1 1
1783 1 5.8753544592859841e+00 3.3107555408711425e-01 2.8834906412899239e+00 0 1 0
3878 2 6.0086486692131631e+00 9.7073689634694837e-01 2.3170992617314043e+00 0 0 1
631 1 5.4651119114159332e+00 1.2242275140030501e+00 3.1360880098431494e+00 0 0 0
3756 2 7.3837842396061761e+00 7.9440661480403651e-01 1.6911818390554190e+00 0 0 1
1357 1 6.6240056057792920e+00 3.7561700286868149e-01 2.0735617716918160e+00 0 1 1
575 1 6.5218673802324325e+00 1.1258376037682833e+00 3.0076784251177040e+00 0 0 0
722 1 6.8213623401420085e+00 1.4179618483976240e+00 1.9295879532844666e+00 0 1 0
1147 1 7.4140810375182724e+00 8.0407395785754321e-01 2.6562330936690040e+00 0 0 1
1351 1 8.1785372853140377e+00 1.0201319795874098e+00 1.9552242209264159e+00 0 1 0
3775 2 8.3010115169723822e+00 7.2164321041890178e-01 2.8894307496338829e+00 0 1 0
2037 1 7.6987069898460136e+00 4.6677758439617030e+00 2.4511440710099754e+00 0 0 0
1696 1 8.5080272346203554e+00 4.5610297188309818e+00 4.1807914241387847e+00 0 0 0
94 1 2.9585671830195253e+00 7.2071675707363388e-03 3.2901602383834105e+00 0 0 0
3495 2 5.5437726059030790e-01 1.8596393833691820e+00 1.6957976372081878e+00 0 0 2
986 1 2.0141397373371750e+00 4.1270058073806872e+00 4.7391515752776794e+00 0 0 0
4049 2 1.0313205859592183e+00 2.7675922709182696e+00 2.9132518283935345e+00 1 1 1
4041 2 9.5670861546084751e+00 5.5727832123509613e-01 3.5213256047828416e+00 0 1 0
431 1 1.7564159575493932e+00 1.5531362365250125e+00 2.5103944591430483e+00 0 1 1
558 1 2.6554277182569233e+00 2.2260651435318519e+00 1.9106398169269272e+00 0 0 0
2962 1 1.6376704361257914e+00 2.5622727358101911e+00 2.2807621810151102e+00 1 0 0
83 1 2.5767630360232436e+00 2.9841784920699230e+00 2.5938774250558243e+00 0 0 0
166 1 2.5837876873450885e+00 2.0280797943208513e+00 3.0531606254938852e+00 0 0 0
1376 1 3.5166353743968601e+00 2.0731233520141381e+00 2.4911234104490267e+00 0 1 0
3606 2 3.3784803314819127e+00 2.8627950650334015e+00 2.2006148569819346e+00 0 0 0
2941 1 4.2099689980767385e+00 3.0356859765500785e+00 2.5242752294696249e+00 1 0 0
3608 2 4.2980454425105030e+00 2.1948160953380107e+00 2.8361766867382276e+00 0 0 0
3128 1 3.4828418544559527e+00 3.1783245075487168e+00 3.2556151667772859e+00 1 0 0
555 1 4.5024646339647667e+00 2.1223050067247637e+00 2.0144534382400350e+00 0 0 0
505 1 5.5978635113491695e+00 2.5237375234166302e+00 1.6490650452404252e+00 0 0 0
663 1 5.1001378593066846e+00 2.4174490271838209e+00 2.8031243404451414e+00 0 0 0
3686 2 5.0136846696713935e+00 2.9351319056723302e+00 2.1300083053616472e+00 0 1 0
1446 1 6.1127957591245261e+00 3.0027318558102554e+00 2.5327757566459104e+00 0 0 0
568 1 5.9733540980759088e+00 1.8504738405970538e+00 2.3138094108111926e+00 0 0 0
3703 2 6.2772776889254436e+00 3.2249611279583923e+00 1.6595425319319081e+00 0 0 0
3533 2 7.1786610753521911e+00 1.6887326191108927e+00 2.6258215329270804e+00 0 1 0
1462 1 6.6712185814866274e+00 2.4831168160933963e+00 1.6649484735076734e+00 0 0 0
1511 1 6.9784310597713217e+00 2.4812548880689711e+00 2.7461020547797150e+00 0 0 0
1561 1 7.4401886848641796e+00 3.1396539371008245e+00 2.0179760695604632e+00 0 0 0
2197 1 8.0639741411828290e+00 1.5788513914457827e+00 2.8541704782769681e+00 0 1 0
566 1 7.6676373848296855e+00 2.0207129148217668e+00 1.9638456953092935e+00 0 0 0
1437 1 8.5325931230123935e+00 2.8522374421723966e+00 1.9172523223866036e+00 0 0 0
2101 1 8.8148021467273807e+00 1.7968927019785272e+00 1.9798693424687976e+00 0 0 1
3946 2 8.6447085412367759e+00 2.3646849859963863e+00 2.5777708294193107e+00 0 1 0
1721 1 7.9721347269031817e+00 2.6863280176034476e+00 2.9433457876634290e+00 0 1 0
2421 1 8.9540643397734794e+00 3.0238202781218124e+00 3.1268661477253858e+00 0 0 0
3925 2 6.8739958737076268e-01 4.1791279482315087e+00 1.8603169503847914e+00 1 1 -1
162 1 8.8134719047695975e-01 3.4841746718856892e+00 2.3297449723401900e+00 0 0 0
1191 1 6.0578020386991396e+00 4.6465481736060390e+00 3.6996930363965763e+00 0 0 0
513 1 5.3842558112700409e+00 4.4740662389069064e+00 4.6445647776899719e+00 0 0 0
492 1 1.2218639536292206e+00 4.4163887066818299e+00 3.0019632100974190e+00 0 0 0
2976 1 1.4855258952483628e+00 4.4821579045468392e+00 1.9885247893571958e+00 1 0 0
615 1 2.9092463202093373e+00 3.2940505638329762e+00 1.6208849627623567e+00 0 0 1
3028 1 1.9278335408337488e+00 3.5516599148703194e+00 1.9970708751283472e+00 1 0 0
3610 2 1.9957288108546853e+00 4.2511344194009739e+00 2.7275695185167970e+00 0 0 0
636 1 2.5680831183250303e+00 4.3584034064536263e+00 2.0801114106443745e+00 0 0 1
2965 1 1.6675399033751179e+00 3.4221773016025105e+00 3.1267547830745852e+00 1 0 0
1001 1 8.2850848374791202e+00 3.1068932426101039e+00 1.2077438788023573e-01 0 0 0
1039 1 4.5797036615816111e+00 4.1648211634838281e+00 2.0225874807145465e+00 0 0 0
4238 2 3.2791528590706376e+00 4.1627139116279448e+00 1.5098096790423561e+00 1 0 0
3619 2 4.3239868919420346e+00 3.7065400568409110e+00 3.1618872421641728e+00 0 0 1
586 1 3.3756744750308396e+00 3.8005157455733856e+00 2.4179719131482869e+00 0 0 0
1022 1 4.1385340949878868e+00 4.4628777700658580e+00 2.9069124450493935e+00 0 0 -1
1682 1 8.1486414486262468e+00 3.6616243290404822e+00 3.5731710041366775e+00 0 0 0
1440 1 5.1532077064011785e+00 3.4623509650024640e+00 2.8433037168138346e+00 0 0 0
664 1 5.5598613776793533e+00 3.7030567890751613e+00 1.9464386445625665e+00 0 0 0
550 1 5.2198710131850561e+00 4.4252342092792656e+00 2.9359501582777838e+00 0 0 0
655 1 6.1085992355501082e+00 4.6745287378602889e+00 2.4019233863478933e+00 0 0 1
994 1 6.2299452125449610e+00 3.7648166545968542e+00 3.1952772150071644e+00 0 0 0
1428 1 7.3980322808078780e+00 4.1094639761438536e+00 1.5345600738171228e+00 0 0 0
508 1 6.8442378330620306e+00 4.6198807425088786e+00 3.1212256919906207e+00 0 0 0
534 1 7.2830839184222640e+00 3.5847177027074473e+00 3.0183852094487689e+00 0 0 0
1271 1 6.6593995949444302e+00 3.7929814607635364e+00 2.2270377452190133e+00 0 1 0
1526 1 5.3220930544500122e+00 3.0485913173135755e+00 4.6581168139578342e+00 0 0 0
3838 2 7.6322797369533495e+00 4.3308136265926915e+00 3.2596043271281352e+00 0 0 0
1621 1 8.5165833148494201e+00 4.5844831442780229e+00 3.1320192988988489e+00 0 0 0
1072 1 9.1636890486046418e+00 3.7937952489369957e+00 2.0391576289751923e+00 0 0 0
1535 1 8.1750887390987419e+00 3.7540691717109027e+00 2.5404541596405368e+00 0 0 0
3964 2 8.9761397887386067e+00 3.8629567211351015e+00 2.9101505435082320e+00 0 1 0
1858 1 9.1029804786405624e+00 1.8229280425250496e+00 4.4978026153852690e+00 0 1 0
412 1 3.7003581544238484e-01 1.1290195283162054e+00 3.5160089252794218e+00 0 1 0
4110 2 4.2164349377330546e-01 4.1082670421442813e-01 3.8679262702385331e+00 1 0 0
1402 1 6.8399657260205453e+00 1.9286375546751369e-01 1.4024406663635794e-01 0 1 1
689 1 1.1253986234519964e+00 8.1403761799925778e-01 4.1390993716486433e+00 0 0 0
4299 2 1.0824775528323294e+00 1.5691041313695799e+00 3.4985403725123470e+00 1 1 1
548 1 6.7949372259520153e+00 3.2321514069121138e+00 4.7601327330408063e+00 0 0 0
628 1 7.5545321044244576e+00 4.6316948080505602e+00 4.6077677430353150e+00 0 0 0
194 1 2.1656244164504015e+00 4.3188132403616264e-01 4.5162380919699210e+00 0 0 0
3855 2 1.8217531527858535e+00 4.5868118561291943e-01 3.6046801915497499e+00 0 0 0
3192 1 1.8451487392152588e+00 1.3126271590489449e+00 3.6420517220444912e+00 1 0 0
1491 1 5.0970184165137580e+00 6.1573782184904766e-02 4.7625891696329390e+00 0 0 -1
1880 1 9.4990573258989475e+00 4.4923790497252529e+00 2.7021048701909223e+00 0 0 0
1584 1 2.7670333003811605e+00 9.9318992386417559e-01 3.8880113558260496e+00 0 0 0
3464 2 3.6201229764756326e+00 6.4149523521425911e-01 3.6373011673772062e+00 0 0 -1
652 1 3.7395971278084303e+00 1.2227257923817298e+00 4.3060329697246678e+00 0 0 0
599 1 4.2707388909589001e+00 2.4868332446307478e-01 4.0665227313864181e+00 0 0 0
991 1 9.0712522649465477e+00 1.0700494037687767e+00 2.6370284064016465e+00 0 0 0
4264 2 4.7610705467939649e+00 6.1239384345176207e-01 3.3478508629693629e+00 1 0 1
1054 1 5.4605619121792204e+00 4.3583450151259490e-01 3.8604036389769631e+00 0 0 0
481 1 4.7716131105346431e+00 1.2551831130916005e+00 3.9591987475818216e+00 0 0 0
235 1 6.2066998311404484e+00 1.1904223245474805e+00 4.0026514727685347e+00 0 0 0
3764 2 9.3885785509306903e+00 3.3454248263345726e-01 1.7374641655456735e+00 0 1 -1
3856 2 7.0782013724409376e+00 6.3698135496261121e-01 3.4844645948854223e+00 0 0 0
2360 1 7.1182018488231931e+00 9.5949802775273418e-01 4.3375136006272283e+00 0 1 0
1098 1 9.3228449113934087e+00 2.4854350511250534e+00 8.8998230196485451e-02 0 0 1
3040 1 4.3329097275214234e+00 4.4343815338183346e+00 1.4227157905727969e-01 1 0 0
1950 1 9.0467142274563326e+00 1.2284743194396404e+00 3.6749762009543203e+00 0 0 0
4029 2 8.4339945416305699e+00 1.1143354464551665e+00 4.3291703489791962e+00 0 1 0
580 1 7.9598058689121052e+00 9.6203329997313214e-01 3.6649604762605348e+00 0 0 0
878 1 9.0074009828354562e+00 3.8623970591092305e-01 4.3104725970761795e+00 0 1 0
1906 1 7.9753205421368545e+00 4.4042684924940978e-01 4.7299551308958936e+00 0 1 0
4263 2 6.8708326886860940e+00 4.6645246673935423e+00 2.0271377528609067e+00 1 0 0
905 1 5.2939160611046665e-01 2.3513476687649373e+00 3.4106770250099809e+00 0 1 0
1242 1 5.8508757263202495e+00 1.6259748067349933e+00 1.8024136705491065e-01 0 1 0
906 1 9.5516289024705792e+00 2.6436490092974596e+00 2.2671943542576112e+00 0 1 0
2545 1 5.7421003526937153e-01 2.8924583020651085e+00 4.4710257655351109e+00 1 0 0
3490 2 1.1097295938717224e+00 2.9676928378798828e+00 3.7830413895988069e+00 0 0 0
2562 1 1.1467592773460575e+00 2.0759190795945948e+00 4.2094883316759724e+00 1 0 -1
3080 1 1.5631495782673643e+00 2.2823966239667763e+00 3.3178851350702692e+00 1 0 0
3480 2 2.0749486079003190e+00 2.2130948067912972e+00 4.0838526678683715e+00 0 0 0
700 1 1.7869770525198985e+00 2.9885262214386636e+00 4.3867046888017089e+00 0 0 0
288 1 2.5071832456671097e+00 2.9208373991423304e+00 3.6922744406705377e+00 0 1 0
4208 2 2.7608427113884182e+00 2.8682153703753603e+00 4.5358951690157809e+00 1 0 0
543 1 2.9341465733848198e+00 2.0722039597798196e+00 4.0440045793023200e+00 0 0 0
1165 1 3.8645114113543722e+00 1.9205113974920638e+00 3.5630328722857314e+00 0 0 0
802 1 3.6333082079395584e+00 2.8088581922143336e+00 4.2529188776029994e+00 0 1 0
572 1 4.4547653600624431e+00 2.8605316408215584e+00 3.5336407831520651e+00 0 0 0
1167 1 4.5692422330466078e+00 2.2144260799836188e+00 4.4376729422583967e+00 0 0 0
4240 2 3.5471296648331485e+00 4.8041656824031032e+00 4.2345164252939604e-01 1 0 0
3719 2 4.4900511058262156e+00 3.0992423320670293e+00 4.3509342235788306e+00 0 0 -1
4119 2 4.8824354752826888e+00 1.9933099322576004e+00 3.5803431627816273e+00 0 0 0
1007 1 5.5871331779329116e+00 2.0028815257687418e+00 4.2072431839769600e+00 0 0 0
2164 1 5.6108881896381373e+00 2.9452084589854537e+00 3.6078823844044083e+00 0 0 1
3884 2 6.0721977732181927e+00 2.6807687515531566e+00 4.3722255983742704e+00 0 0 1
1062 1 6.1720425715712288e+00 2.1191939974393894e+00 3.3014051265836928e+00 0 0 0
1194 1 7.3009608188857102e+00 1.7114992578630190e+00 3.5452281577543316e+00 0 1 0
814 1 6.7675800755101090e+00 2.1267565978696905e+00 4.3270655312841990e+00 0 1 0
1081 1 6.6865673663312197e+00 2.9786010607880815e+00 3.6918973532705217e+00 0 0 1
860 1 7.6136238018756899e+00 2.7579547434729319e+00 3.9977887704695969e+00 0 1 1
1625 1 4.0641525883189331e+00 4.7309659794127441e+00 4.6843386325694070e+00 0 0 0
1117 1 5.3463328701510413e+00 3.9163715022714287e+00 2.3911943604226785e-02 0 0 1
1071 1 7.7830681038720506e+00 1.6887971076808805e+00 4.5516451103415543e+00 0 0 -1
1573 1 8.4227132715752742e+00 2.0560314927563819e+00 3.7297731950213548e+00 0 0 0
537 1 8.6248613475388431e+00 2.9049403179572097e+00 4.2903651899812019e+00 0 0 0
536 1 4.6024622623653044e-01 3.4082625161069569e+00 3.3456939870086018e+00 0 0 0
2084 1 9.8486034347696911e+00 4.2323665836496538e+00 2.6413097382653822e-02 0 0 1
114 1 1.1912763222780778e+00 3.8145641149221827e+00 3.9364373842528977e+00 0 0 0
124 1 6.0567137963785882e+00 3.6637676471889669e+00 4.1749336517948956e+00 0 0 0
177 1 2.6015151228968381e+00 3.7958211248035738e+00 3.1709076190457743e+00 0 0 0
1425 1 9.6913626516915272e+00 3.1590461017739968e+00 3.9301016347408231e+00 0 1 0
232 1 2.8742174118386941e+00 3.6685305458210595e+00 4.2335296375083828e+00 0 0 0
779 1 2.0906258742273667e+00 4.6060996492738813e+00 3.6757452164660736e+00 0 0 0
4148 2 2.0299213945727628e+00 3.7864368843787184e+00 3.9055802566317648e+00 1 0 0
1484 1 7.6022016935646217e+00 2.7660464005776660e-02 1.9425660791501203e+00 0 0 0
691 1 4.6601345520850579e+00 4.7223993519885266e+00 3.7603566526569558e+00 0 0 0
3127 1 4.0271457366664638e+00 3.7733966535127186e+00 3.9600085252303430e+00 1 0 0
2076 1 9.2589984381044523e+00 2.0135790647558012e+00 3.0456391098306508e+00 0 0 1
1622 1 9.1601325060653149e+00 3.9880080157978033e+00 3.7430284404798098e+00 0 0 0
2108 1 7.9111865784557107e+00 3.6172997922295851e+00 4.5631140911207746e+00 0 0 0
559 1 3.3334304225588616e+00 4.5413395896167401e+00 3.9054236450625761e+00 0 0 0
3588 2 3.4591987796339523e+00 4.0504104506159608e+00 3.2644819232816440e+00 0 0 0
1505 1 5.0526904750497410e+00 3.7140983116831228e+00 3.8621557327372167e+00 0 0 0
386 1 6.4678140233085122e+00 1.5705922116195967e-01 3.8957330624293305e+00 0 1 0
887 1 3.2584422839808256e+00 6.7754116674311096e-02 4.3101775238927171e+00 0 1 0
4177 2 6.0535952026623425e+00 1.5871666277311178e+00 4.7589871741396168e+00 0 1 0
970 1 6.4507501723037919e+00 4.5372966568349993e+00 4.7296055667990933e+00 0 0 0
3676 2 9.6612909108401492e+00 1.8302389163941912e+00 2.0987465080848793e+00 0 1 1
3565 2 9.0701155112227330e+00 4.5079901306023498e+00 4.8113383866593198e+00 0 0 0
529 1 3.0275638588555407e+00 4.7215589342703685e+00 2.9450464378072732e+00 0 0 0
3688 2 3.6025324245289929e+00 3.7173909096938962e+00 4.7042433076574337e+00 0 1 0
911 1 1.9018597864273862e-01 3.3272244397396298e+00 1.5458711254614250e+00 0 1 1
208 1 1.0217389274462045e+00 4.5360063061892486e+00 4.7208950016173858e+00 0 0 0
3631 2 4.8198146920465517e+00 4.8070467247087345e+00 9.8682188257163750e-01 0 0 1
2021 1 1.3289288535299698e-01 5.4692746567940176e-01 5.3520794429849596e+00 1 0 0
868 1 8.4969106396033145e-01 8.9214666007754695e-01 6.0363359825512086e+00 0 1 0
1899 1 9.5780779502531477e+00 9.6810278354795509e-01 5.1002366840811373e+00 0 1 0
1090 1 6.2069113429095548e+00 6.4137292510481403e-01 4.8498108372782465e+00 0 0 0
1963 1 9.6308381630125162e+00 2.6786678535681387e+00 4.8616576174691843e+00 0 0 0
2986 1 1.2765080106819311e+00 5.4422566847650411e-01 5.0986013092927207e+00 1 0 0
3545 2 2.0366222403033967e+00 9.1277146580191215e-01 5.3642595313298349e+00 0 1 0
199 1 1.7957019203921794e+00 6.3915102697409709e-01 6.1522273706828674e+00 0 0 0
624 1 7.6821115558946875e+00 2.2270392787639137e+00 9.2854502787139346e+00 0 0 0
3722 2 3.8827068516540808e+00 2.3160918805787559e-01 5.8970567560451901e+00 0 1 -1
370 1 3.9621557204875373e+00 1.5615478882935674e-01 8.1098675172518568e+00 0 1 0
706 1 2.8522124120691705e+00 7.0968728822578275e-01 5.9298726143777429e+00 0 0 0
3811 2 2.7981200238800605e+00 3.8018614464586337e-01 5.1221900773701110e+00 0 1 0
3513 2 3.5302787677457332e+00 1.4104299644408822e+00 5.4970057476454759e+00 0 0 0
842 1 3.6769634393631399e+00 6.3762600108661305e-01 5.0980870876451450e+00 0 1 0
913 1 3.9435311011895058e+00 1.0428885612557208e+00 6.1810915250042671e+00 0 1 0
1069 1 4.3180144661256374e+00 1.5593350930850394e+00 5.1731837221129222e+00 0 0 0
3924 2 9.2460033329928972e+00 9.3680305490799753e-02 8.3919817185223113e+00 0 1 -2
3611 2 5.4891640990017914e+00 4.9174882208022336e-01 5.3906621136295225e+00 0 0 1
3752 2 5.0235148508620036e+00 1.2185052407599375e+00 5.6850107873011515e+00 0 0 0
526 1 4.6104132148431889e+00 5.1754298546676114e-01 5.5787651084697680e+00 0 0 -1
1080 1 5.3592264414820630e+00 7.9490767502057458e-01 6.3093942906470328e+00 0 0 0
1514 1 7.5660367748204331e+00 3.2171265115197922e+00 8.8899647893876388e+00 0 0 -1
1128 1 5.9043414177024571e+00 1.3266754321826701e+00 5.6394503715785724e+00 0 0 1
724 1 7.0875596100827121e+00 3.9252223207369108e-01 5.2927094152704877e+00 0 1 0
1498 1 6.1737495615236977e+00 3.0715352882944608e-01 5.9871293343520682e+00 0 0 0
1683 1 6.9515382845787181e+00 8.5934565571484967e-01 6.2408155069015674e+00 0 0 0
1199 1 6.8794604593141893e+00 1.4941958992565663e+00 5.2217299960996613e+00 0 1 0
3749 2 9.4071249992638446e+00 3.8139049440894088e+00 8.2293834265290382e+00 0 0 0
4122 2 7.6343488405183804e+00 1.0995360390614874e+00 5.2289104668358153e+00 0 0 0
1349 1 7.9380463934592465e+00 7.1740402510029622e-01 5.9277609433903091e+00 0 1 0
889 1 8.4937520639868342e+00 1.2321123005714589e+00 5.1273777130257692e+00 0 1 0
2044 1 8.8242853074556074e+00 2.9319956456170959e-01 5.4050326011762939e+00 0 0 0
1654 1 8.7009121329358461e+00 1.4339253241022711e+00 6.1153095007404135e+00 0 0 0
1907 1 9.1514341132674684e+00 3.4091164970884219e-01 6.3884549455182782e+00 0 1 0
282 1 4.6651961195878694e-01 1.9403758502143749e+00 5.8969731875183218e+00 0 1 -1
155 1 2.3735314147493924e-01 2.9557255455166200e+00 5.4160627318596255e+00 0 0 0
134 1 1.1307032954782601e+00 3.0599962327557755e+00 6.0415455615785794e+00 0 0 0
1021 1 9.2425008281115097e+00 3.3541055768677999e+00 9.2267790675818215e+00 0 0 0
1566 1 7.6720732205598781e+00 3.8969443382036273e+00 8.1021360527124262e+00 0 0 0
110 1 1.6943988996262731e+00 1.7130711175419788e+00 5.7329670542907794e+00 0 0 -1
26 1 1.2532590111425277e+00 2.4593667674570887e+00 5.2106800664284236e+00 0 0 0
695 1 2.7173591948666846e+00 1.7838691598180465e+00 5.9533975795042577e+00 0 0 0
602 1 2.3643411443400435e+00 2.2544209915035212e+00 4.9393367458368624e+00 0 0 0
2586 1 2.1574818125674096e+00 2.5996486908597123e+00 6.2873997157410439e+00 1 0 0
4302 2 2.9763524525173284e+00 2.9969140180924629e+00 6.0489527233575133e+00 1 1 0
1180 1 3.7773403378710815e+00 2.2098303090054014e+00 5.9465382961201030e+00 0 0 0
1482 1 4.1542647886841078e+00 2.8862582153200624e+00 5.1966024116475058e+00 0 0 0
632 1 3.3490664224695177e-01 4.5159216512634313e+00 9.0730491993203977e+00 0 0 0
675 1 3.8269623301060025e+00 3.1970251643971097e+00 6.1639431409288834e+00 0 0 0
676 1 3.2133085445791312e+00 3.1814584986492016e+00 5.2333163197913208e+00 0 0 0
1114 1 5.1638482407744304e+00 2.1755398812775075e+00 5.2992415699466342e+00 0 0 0
1187 1 5.7567457752614173e+00 2.2949975325072103e+00 6.0895878808857757e+00 0 0 0
659 1 4.8195945659664048e+00 2.7788625884704956e+00 6.0356933591475261e+00 0 0 0
3713 2 5.4792570427278795e+00 3.0705234481476129e+00 5.4908762031494680e+00 0 0 0
698 1 4.7371988009986925e+00 1.7753254822031197e+00 6.2191884849981935e+00 0 0 0
1177 1 6.2587033812992576e+00 2.3996661438545659e+00 5.1985497008655273e+00 0 0 0
1853 1 6.7474952052550048e+00 1.9302922773026101e+00 6.1463007412373294e+00 0 1 1
3123 1 6.7442973555820060e+00 2.9679545481626075e+00 5.8985048995984481e+00 1 0 0
3577 2 7.5196067129496242e+00 2.7007776449603367e+00 5.9670263877088381e+00 0 0 -1
1676 1 7.4538580782847701e+00 2.5650803524298191e+00 5.1474884117556394e+00 0 0 0
1647 1 7.8190512189935735e+00 1.7521482963665695e+00 5.7737871892937740e+00 0 0 0
1049 1 8.6039675407144038e+00 2.3702021579334196e+00 5.2717471685124089e+00 0 0 0
733 1 5.8200588598406684e+00 2.9647587416293479e+00 9.5760133410575019e+00 0 1 -1
1153 1 8.2779687990856630e+00 2.4802850118806683e+00 6.3830573459659030e+00 0 0 0
3714 2 4.8125677284744245e-01 3.4932246086533354e+00 6.3506674205956344e+00 0 0 0
2590 1 6.6562658760858617e-01 4.2185214884434705e+00 5.8967192221395628e+00 1 0 0
2453 1 1.1809527439236278e+00 3.5351394860627461e+00 5.0618799524072733e+00 1 0 0
610 1 3.3563534912254891e+00 2.0981357762150989e+00 5.0175031620583237e+00 0 0 0
2494 1 2.7821335230561446e+00 1.2136310335451073e+00 5.0233780478794525e+00 1 0 -1
1079 1 2.1336869445046465e+00 3.2083285802600967e+00 5.4111784469952164e+00 0 0 0
223 1 1.7131243965790368e+00 4.0613734482981849e+00 5.9432344867104314e+00 0 0 0
1133 1 2.7654118252305970e+00 3.8385570246310321e+00 5.9818288937585633e+00 0 0 0
153 1 3.0644259717277209e+00 4.3622528542549626e+00 5.1067446416255935e+00 0 0 1
1115 1 9.1509127551019951e+00 4.2548177393951283e+00 5.8296270609227836e+00 0 0 0
601 1 3.8995928105289650e+00 4.0760945749651505e+00 5.5789415160714357e+00 0 0 0
1093 1 5.0396977987436857e+00 3.7624001224072425e+00 5.7821373774007512e+00 0 0 0
1688 1 9.8706595948001326e+00 4.6671831128444561e+00 5.2052297392836646e+00 0 0 0
2088 1 6.0199479928375768e+00 3.7662874078464248e+00 5.3132796786108658e+00 0 0 0
127 1 5.8254178563639814e+00 3.3483839384422045e+00 6.3132486867121500e+00 0 0 0
784 1 9.0977159430483727e+00 1.1773911330755102e+00 7.0919889181784086e+00 0 1 0
1085 1 7.2880604808831144e+00 3.9749729334547896e+00 5.3357210757227538e+00 0 0 0
3016 1 6.6344060585823312e+00 4.1534411673769620e+00 6.2286094299236989e+00 1 0 0