LAMMPS data file via write_data, version 12 Dec 2018, timestep = 30360

4320 atoms
2 atom types

0.0000000000000000e+00 1.9309999999999999e+01 xlo xhi
0.0000000000000000e+00 1.9309999999999999e+01 ylo yhi
0.0000000000000000e+00 9.6549999999999994e+00 zlo zhi
4.4413000000000125e-01 0.0000000000000000e+00 0.0000000000000000e+00 xy xz yz

Masses

1 1
2 1

Atoms # atomic

597 1 7.6579492058147380e-01 6.5083002183861072e-01 3.4852982305831759e-01 0 0 0
237 1 6.7237657220403646e-01 1.0348890335895169e+00 1.4090466930373113e+00 0 0 0
1098 1 9.4634631609367101e+00 2.4554444105893776e+00 1.5719348005473915e-01 0 0 1
1218 1 1.6752009610355019e+00 7.5654614326103042e-01 9.8205696389396602e-01 0 1 0
3622 2 2.4692989953510671e+00 7.8285925568266912e-01 6.5220581464740790e-01 0 0 1
115 1 2.9069841192625865e+00 2.3937527115465837e-01 1.1686657813476113e+00 0 0 0
967 1 1.6056304498743446e+00 1.5432519354307901e+00 3.8192233288015964e-01 0 0 0
3205 1 2.5581658235629492e+00 1.7463662493633609e+00 9.0335511748677888e-01 1 1 0
3772 2 3.5500564143671052e+00 1.0394281884431579e-01 4.0012216598411493e-01 0 1 1
851 1 3.4131225463891748e+00 9.8438302646407116e-01 6.3324658403706890e-01 0 1 0
253 1 4.0327572407495174e+00 2.9056375116597394e-01 1.2018203893688921e+00 0 1 0
1190 1 4.3519644553320962e+00 1.4571917914494095e+00 1.0724799729393062e+00 0 0 1
3918 2 4.1863217594113458e+00 1.4417535667434835e+00 2.2272604433390203e-01 0 1 0
30 1 7.2440447576348168e+00 3.9814113896944789e+00 4.0193086878549309e+00 0 0 0
1127 1 4.4339228038242018e+00 6.8748473311985336e-01 2.3812177501565621e-01 0 0 1
1554 1 5.2700330910926194e+00 1.1800658133399278e+00 7.1815382029300334e-01 0 0 1
4116 2 4.8799800763864480e+00 8.7907156006901566e-01 1.3989858287590484e+00 1 0 -1
95 1 5.9840848450924238e+00 5.8319479798378648e-01 1.4543399175195169e+00 0 0 0
2174 1 6.1666400189004467e+00 4.8296963923962499e-01 3.7672642821488295e-01 0 1 0
1242 1 6.0482164297256409e+00 1.5526838585264424e+00 1.5463044861759856e-01 0 1 0
870 1 6.2334234857111799e+00 1.6079890874855454e+00 1.1995961456685802e+00 0 1 1
1798 1 7.0260211316509276e+00 8.6484079601606789e-01 1.0314530085454263e+00 0 1 0
627 1 2.7859541934665799e-01 3.8508587669292291e+00 4.7523309735153507e+00 0 0 0
3631 2 4.9212266509773590e+00 4.6769877159265851e+00 9.8286813848259547e-01 0 0 1
1615 1 7.8658155916418693e+00 1.4790501424438327e+00 9.8421884204083010e-01 0 0 1
1458 1 7.9810247213629397e+00 3.9898739906505432e-01 8.8824971570243461e-01 0 0 0
3793 2 8.5489264355584744e+00 5.9174667836028250e-01 2.1778280289202595e-01 0 1 0
767 1 9.0234309451436179e+00 5.3953228689882182e-01 1.0513342334200497e+00 0 1 0
1359 1 8.6813080140287635e+00 1.4896941910988273e+00 2.7482273731107648e-01 0 1 1
3468 2 8.9901941547023529e+00 1.5066712385093317e+00 1.1241435865385530e+00 -1 0 1
465 1 6.9076734203613921e-01 1.8777770458877892e+00 7.9788711854980265e-01 0 1 1
3040 1 4.5294527422979964e+00 4.4209445174237088e+00 1.3956886837317187e-01 1 0 0
657 1 7.1450780298954175e-01 3.0362826079199379e+00 5.2798592593961202e-01 0 0 1
708 1 1.0136434783430368e+00 2.7934861999203773e+00 1.4654467788995975e+00 0 0 1
50 1 5.5591623477552359e+00 4.6211243977338068e+00 1.5817094251242798e+00 0 0 0
3478 2 1.4191983179672860e+00 2.4011966545899370e+00 6.6411313754591461e-01 0 0 -1
254 1 2.0451021412683077e+00 2.6777458239074310e+00 1.1948099784969421e+00 0 1 0
2960 1 1.4678082371059209e+00 1.8092752600179074e+00 1.4292805087029397e+00 1 0 0
2064 1 2.2331399950493944e+00 2.3623928544592734e+00 1.5787662231825755e-01 1 0 1
3599 2 2.5673968518944146e+00 3.1600791184341688e+00 7.1284973953319486e-01 0 0 0
622 1 3.2889240996569700e+00 2.6809522332355447e+00 6.0136095084460384e-01 0 0 1
3750 2 3.4914852302237316e+00 1.8321244711423261e+00 9.0249365791010738e-01 0 0 1
34 1 4.3459697952427758e+00 2.3622534710616820e+00 4.4967211058335183e-01 0 0 0
1065 1 3.7317970571565779e+00 2.4244803210282604e+00 1.5107565700050296e+00 0 0 0
968 1 5.4310166217631348e+00 2.2533239515041807e+00 5.5213086036428127e-01 0 0 1
3708 2 5.0707594960269429e+00 1.9934737345153712e+00 1.2224380587652355e+00 0 0 0
1166 1 4.8080432775250497e+00 2.7563710668264956e+00 1.3370677965758748e+00 0 0 1
3768 2 5.1189771101617962e+00 3.0770499879326976e+00 5.5465470229416236e-01 0 1 0
17 1 2.1682259569747493e+00 8.5965326270964748e-05 1.8903289152838181e+00 0 0 0
3757 2 7.1115144682516300e+00 1.8746424158370267e+00 1.1850573151352539e+00 0 0 1
1764 1 6.4120723110003572e+00 2.5004197665940997e+00 8.1204752507105060e-01 0 1 0
1617 1 7.5318207025854127e+00 2.5805337090809073e+00 8.6477502525150574e-01 0 0 1
1117 1 5.3969112070811436e+00 3.8618433551041367e+00 1.3908467241912090e-01 0 0 1
1499 1 8.6468291082360533e+00 2.4233803741472424e+00 9.3579324612350268e-01 0 0 1
4240 2 3.6360223284071140e+00 4.6953667147939866e+00 4.3415422141033527e-01 1 0 0
497 1 1.1357395755513087e+00 3.7807311219844157e+00 1.1580387844578743e+00 0 0 0
2201 1 9.6516864707077286e+00 4.3279689081251904e+00 1.2548740133774741e+00 0 1 0
911 1 2.2326265313530977e-01 3.5960143740087771e+00 1.6214759774651151e+00 0 1 1
987 1 7.0852492234563043e+00 1.8110690495963513e+00 2.9244474000367920e-01 0 0 0
2731 1 5.9063086688661059e-01 1.3686889842848068e-01 2.9938853800282987e+00 1 1 0
3085 1 1.7691108735753203e+00 3.3018695366075348e+00 3.7675095998085661e-01 1 0 1
3799 2 1.4714536250686585e+00 4.3936472244428284e+00 6.1146912222599348e-01 0 1 0
171 1 2.2789215159437965e+00 3.9987829031640949e+00 1.0319745380852519e+00 0 0 1
548 1 7.0068881137899570e+00 3.1552341111940416e+00 4.6428580268769730e+00 0 0 0
952 1 9.6902262744670136e+00 2.3667202106213092e+00 1.2028117011925743e+00 0 0 0
656 1 4.2091855706818331e+00 3.4681154753951327e+00 4.5190221756065357e-01 0 0 1
2996 1 4.0185953673863510e+00 4.4488915395146647e+00 1.1094719508433473e+00 1 0 0
717 1 3.2749588405930434e+00 3.8401180250254341e+00 6.7566710396047103e-01 0 0 1
513 1 5.5806587988651426e+00 4.4812771422912565e+00 4.7253090468251644e+00 0 0 0
668 1 3.9900952185932206e+00 3.4067034833110710e+00 1.5290747678631482e+00 0 0 0
4177 2 6.3180227756306975e+00 1.6124704133992054e+00 4.7346291936060450e+00 0 1 0
1029 1 7.8095831683244565e+00 9.5264748127462107e-01 1.6933444050341587e-02 0 0 0
1019 1 5.8786965482644078e+00 3.3411558196036855e+00 1.0245804562439771e+00 0 0 0
1198 1 4.9759022838047633e+00 3.8368517624306926e+00 1.0659191548023390e+00 0 1 0
3627 2 5.8500459703081509e+00 4.2749322283573141e+00 8.0410623937034875e-01 0 0 1
733 1 5.9513832834236799e+00 2.9698962960600626e+00 1.5598878141113156e-02 0 1 0
3503 2 9.3845217567381880e+00 2.3007098896819760e+00 3.7699886648757910e+00 -1 0 2
567 1 6.9587606953997048e+00 3.4281349933613923e+00 1.1027725238480155e+00 0 0 0
669 1 6.5531115948317034e+00 4.3319120396029414e+00 1.4166470216385911e+00 0 0 1
3865 2 7.1825976836195871e+00 4.2958403634045661e+00 8.3342025926028074e-01 0 0 0
1051 1 6.4808142107137900e+00 3.8943302797828316e+00 3.0512211980118220e-01 0 0 0
2098 1 7.6048868916556573e+00 3.7590970007361242e+00 3.0496412011304908e-01 0 0 1
4042 2 4.6382071124958637e+00 8.4000389077700077e-01 4.6581022354136321e+00 0 1 0
1513 1 8.0004355444032029e+00 4.6099314349041638e+00 8.0354098169556210e-01 0 0 0
503 1 9.2544879639862643e+00 3.3571200574384523e+00 1.0601307592795628e+00 0 0 0
1506 1 8.1686532019975466e+00 3.3619451015227124e+00 1.1719656496413511e+00 0 0 0
1564 1 8.8932245528786957e+00 4.2164368830055956e+00 4.3396364994157899e-01 0 0 1
1572 1 8.6584085949289733e+00 4.2506224315921513e+00 1.4965098053365564e+00 0 0 1
1402 1 7.1472017493906597e+00 1.5002289423269102e-01 1.7797000995347106e-01 0 1 1
3056 1 3.0961267980134149e-01 2.3311997239796209e-01 2.0062545317124849e+00 1 0 0
3516 2 5.1986969491819035e-01 9.7929397656417116e-01 2.4473155358033170e+00 0 0 0
57 1 1.9970006857117133e+00 1.5200003631885131e+00 4.5887309138460308e+00 0 0 0
140 1 1.4783146003383716e+00 8.5359178162987204e-01 2.0098189419307642e+00 0 0 0
135 1 1.0083361209118360e+00 1.6928360495266934e+00 2.4995667339835972e+00 0 0 1
520 1 2.4562091659391942e+00 1.0635186269054133e+00 1.6632801632926888e+00 0 0 0
3167 1 1.5212149840498774e+00 7.1288779857006845e-01 3.0629803009117564e+00 1 0 1
715 1 2.5340858435343390e+00 7.4927694150379387e-01 2.8197715676096098e+00 0 0 0
3764 2 9.6368197938705968e+00 5.2421003660100440e-01 1.6693318247409297e+00 0 1 -1
1000 1 3.4220871016183070e+00 1.3657024655844705e+00 1.5957642403383276e+00 0 0 0
4214 2 2.9649437681940634e+00 1.4459955320420628e+00 2.3562581357421912e+00 1 0 0
817 1 3.2950624121312533e+00 4.8788378547370825e-01 2.0940183097184599e+00 0 1 0
159 1 4.2830279544813123e+00 8.4701158121701314e-01 1.9843006973156221e+00 0 0 0
992 1 3.5148571302094536e+00 1.1602120362984707e+00 2.8665097645664712e+00 0 0 0
966 1 4.2673307473900826e+00 2.6518466471842456e-01 2.7756250951214185e+00 0 0 0
1134 1 4.6090050855174640e+00 1.3919786622596391e+00 2.7949331631056196e+00 0 0 1
1040 1 5.4331491188007952e+00 1.4255224037420910e+00 1.8590920730318965e+00 0 0 0
1358 1 5.2071956561768520e+00 5.9264339282025058e-01 2.3262863342749323e+00 0 1 1
1783 1 6.0812852083332656e+00 2.0790965768412389e-01 2.8852074029931578e+00 0 1 0
3878 2 6.1325168404770389e+00 9.0919915570231002e-01 2.2703125982545300e+00 0 0 1
631 1 5.6097122481878330e+00 1.2521110524906340e+00 3.0705175765800630e+00 0 0 0
3756 2 7.6213769762150578e+00 8.6057939305653564e-01 1.6532928847604291e+00 0 0 1
1357 1 6.8814095781093956e+00 4.7773929225287476e-01 1.9830303893176051e+00 0 1 1
575 1 6.7611034130481213e+00 1.0710254783709756e+00 2.9418680807509698e+00 0 0 0
722 1 7.1759746354850495e+00 1.5094408221667002e+00 1.9893162900425392e+00 0 1 0
1147 1 7.7103008510772488e+00 8.1369897683436054e-01 2.5212742302067039e+00 0 0 1
1351 1 8.5060723805766862e+00 1.1118370064385059e+00 1.7582504959628775e+00 0 1 0
3775 2 8.6709229530153760e+00 6.2746977559995309e-01 2.8270209636793946e+00 0 1 0
1042 1 2.8405912133325315e+00 4.5065970456927982e+00 3.2102162100359238e-02 0 0 0
1696 1 8.5714633918365397e+00 4.3743769229050198e+00 4.3186369175415011e+00 0 0 0
3602 2 8.4526496009908509e+00 3.9222600145874018e-02 3.6861115693434918e+00 0 0 0
3495 2 5.9183140112887567e-01 1.9563895185909628e+00 1.6707804910924002e+00 0 0 2
778 1 3.8040097706471204e-01 2.5771330993489472e+00 2.3046885859221686e+00 0 1 0
4049 2 1.1325613481770596e+00 2.8201099219641086e+00 2.7688941848013302e+00 1 1 1
887 1 3.4946659086326317e+00 1.5583336847952481e-01 4.3035128781082559e+00 0 1 0
431 1 2.0645796681343649e+00 1.5931884415067969e+00 2.4846843197934279e+00 0 1 1
558 1 2.6799091518068114e+00 2.1156869546248442e+00 1.8755722990827077e+00 0 0 0
2962 1 1.6904907862300529e+00 2.5629950309062624e+00 2.1976796667300942e+00 1 0 0
83 1 2.7040402987578585e+00 2.8914251446735189e+00 2.6007400542814909e+00 0 0 0
166 1 2.8698449039916163e+00 1.9238042249629586e+00 3.1257004056926934e+00 0 0 0
1376 1 3.5818028489834570e+00 2.0746717677630109e+00 2.4339114660475003e+00 0 1 0
3606 2 3.4291027854664788e+00 2.8671302830149714e+00 2.1831165989859938e+00 0 0 0
2941 1 4.2801323179134583e+00 2.9530589202799171e+00 2.3755554168498216e+00 1 0 0
3608 2 4.3303899490126154e+00 2.1360074564957645e+00 2.8533300008409244e+00 0 0 0
3128 1 3.6333932258086796e+00 2.8841359524136663e+00 3.0942337479510504e+00 1 0 0
555 1 4.4725497005974670e+00 1.9246423103582209e+00 1.9291784200619961e+00 0 0 0
505 1 5.7129508185344404e+00 2.3963591545872784e+00 1.6376781290057554e+00 0 0 0
663 1 5.2247978194663256e+00 2.2116223057578948e+00 2.7529077576249725e+00 0 0 0
3686 2 5.2978648258457790e+00 2.8479907068074777e+00 2.2141869531986651e+00 0 1 0
1446 1 6.1792397742475753e+00 2.9110282533046101e+00 2.6200227853023232e+00 0 0 0
568 1 6.2576185458071150e+00 1.7558881581278138e+00 2.3174108002312517e+00 0 0 0
3703 2 6.2781892043517491e+00 3.1132093928117874e+00 1.7585018754503265e+00 0 0 0
3533 2 7.8125028865141850e+00 1.8007674173075123e+00 2.6601878907225669e+00 0 1 0
1462 1 6.8750822696205391e+00 2.4772441052223897e+00 1.7562385319609612e+00 0 0 0
1511 1 7.1693921722700065e+00 2.2778386625402498e+00 2.7432681266627639e+00 0 0 0
1561 1 7.5671050517918683e+00 3.1696748737733187e+00 1.9834068861422509e+00 0 0 0
2197 1 8.6271207584161420e+00 1.4989382794438106e+00 2.7420994126655756e+00 0 1 0
566 1 8.0276472688701777e+00 2.1130772173970449e+00 1.8358974585362851e+00 0 0 0
1437 1 8.6459718044953799e+00 3.0006428104919669e+00 2.0142239924243523e+00 0 0 0
2101 1 9.0611376707847757e+00 2.0389916356830935e+00 1.8819213276920215e+00 0 0 1
3946 2 8.8458047609499797e+00 2.3056984048714515e+00 2.7168226159889115e+00 0 1 0
1721 1 8.1412940351170331e+00 2.6450781109159958e+00 2.9593335306250639e+00 0 1 0
2421 1 9.1709069838715482e+00 3.0080357388694536e+00 3.2823102629731937e+00 0 0 0
3925 2 7.4118577844598865e-01 4.2393690598049707e+00 1.8455926005975580e+00 1 1 -1
162 1 1.0774293643667121e+00 3.5289976730734645e+00 2.2493007493546782e+00 0 0 0
3139 1 2.9347776968923217e-01 4.2927922469621604e+00 2.5910546520289577e+00 1 0 0
1090 1 6.3645924020225566e+00 7.0199364468598324e-01 4.7742107451265348e+00 0 0 0
492 1 1.2638317124187226e+00 4.3648615042477026e+00 3.0487993839386700e+00 0 0 0
2976 1 1.5814414204173739e+00 4.4063068840813697e+00 1.9131276675651836e+00 1 0 0
615 1 2.9922526220744672e+00 3.2535495858227632e+00 1.5445775734103466e+00 0 0 1
3028 1 2.0698367655603085e+00 3.4904150701027370e+00 1.9605526459157758e+00 1 0 0
3610 2 1.9874821404913694e+00 4.1010284375118147e+00 2.6485491775988570e+00 0 0 0
636 1 2.6939368833758293e+00 4.3034782700715306e+00 2.0828186949604217e+00 0 0 1
2965 1 1.8789929433105617e+00 3.3376313706195035e+00 3.0031726047618332e+00 1 0 0
986 1 2.0438864289974310e+00 4.1900136006416941e+00 4.7314622119521488e+00 0 0 0
1039 1 4.6203779521791697e+00 4.0009410198959134e+00 2.1256076047752832e+00 0 0 0
4238 2 3.3673144492940912e+00 4.1275936427433306e+00 1.6057321467552517e+00 1 0 0
3619 2 4.2001293173188214e+00 3.5738603961056126e+00 3.0104002046224876e+00 0 0 1
586 1 3.5245953714410461e+00 3.7391506522789721e+00 2.4057317920421117e+00 0 0 0
1022 1 4.1539790409877551e+00 4.4406647287661221e+00 3.0835039722483248e+00 0 0 -1
1682 1 8.3419754029719986e+00 3.5635347822252736e+00 3.6170308591049665e+00 0 0 0
1440 1 5.0996620627842244e+00 3.4175227995427457e+00 2.8518907245264140e+00 0 0 0
664 1 5.7524301492751766e+00 3.7386332768697761e+00 2.0721132670197417e+00 0 0 0
550 1 5.2885014808352357e+00 4.4731787073505256e+00 2.8958236263278838e+00 0 0 0
655 1 6.2259449169394809e+00 4.6138624387041176e+00 2.4879849409135009e+00 0 0 1
994 1 6.2411519890665579e+00 3.7889260766706956e+00 3.1787268600838767e+00 0 0 0
1428 1 7.6110661227519794e+00 4.1050397641683185e+00 1.6439807891648255e+00 0 0 0
508 1 7.0184006220339965e+00 4.6142365842152389e+00 3.1435431975529413e+00 0 0 0
534 1 7.3903421536434672e+00 3.3919683036558026e+00 3.1932487178002189e+00 0 0 0
1271 1 6.8895055855376457e+00 3.8107781216224188e+00 2.3215343014804639e+00 0 1 0
1785 1 8.8943349332566672e+00 1.6824922802141193e-01 2.1059480553045011e+00 0 1 0
3838 2 7.8518692248255384e+00 4.2619618192942808e+00 3.3831917495101913e+00 0 0 0
1621 1 8.6477661894934563e+00 4.5876825891020072e+00 3.2595578435544033e+00 0 0 0
1072 1 9.3197390497445181e+00 3.8014244249290883e+00 2.1750726041889283e+00 0 0 0
1535 1 8.1680314244749130e+00 3.8339729515169974e+00 2.5152259132081429e+00 0 0 0
3964 2 8.9718128780335160e+00 3.8429592285351610e+00 2.9622189449976020e+00 0 1 0
1858 1 9.3968615636887769e+00 1.7709300499546001e+00 4.5142243649456741e+00 0 1 0
412 1 5.3110386265349951e-01 1.1800171941885818e+00 3.3111758720397577e+00 0 1 0
4110 2 5.3859806913402497e-01 4.0015280768418965e-01 3.7415094360934158e+00 1 0 0
444 1 2.7071513716337314e-01 8.6847114705690431e-01 4.3704559342622700e+00 0 1 0
689 1 1.3046210589361662e+00 7.6592188713729281e-01 4.1121116817033583e+00 0 0 0
4299 2 1.2709396510382280e+00 1.6276296403391006e+00 3.3135536690185221e+00 1 1 1
4250 2 2.8009182166145190e+00 4.5200070252482227e+00 4.4029972015839496e+00 1 0 1
180 1 8.4109122048922280e-01 4.0186355973080135e+00 9.0925169539009559e-02 0 0 1
194 1 2.3552680919542559e+00 5.5861286547047506e-01 4.4598475448929769e+00 0 0 0
3855 2 2.0940717928722288e+00 3.9871349520254062e-01 3.6332446047178348e+00 0 0 0
3192 1 2.0732539290208161e+00 1.4242707279686215e+00 3.5880741328884853e+00 1 0 0
574 1 4.7282381169550076e+00 3.8798097894242951e+00 4.7151674199265052e+00 0 0 0
1880 1 9.5440575160296479e+00 4.5433487022458490e+00 2.8185526575784268e+00 0 0 0
1584 1 2.9699152342885564e+00 9.6317926420671851e-01 3.7108225167699795e+00 0 0 0
3464 2 4.0745036689015626e+00 8.7144065288402639e-01 3.4758289967272868e+00 0 0 -1
652 1 3.8740254122592543e+00 1.1292343824223219e+00 4.2866581343894552e+00 0 0 0
599 1 4.5301624380544805e+00 1.9571969296885336e-01 3.9383664422033009e+00 0 0 0
991 1 9.5493054752422761e+00 9.8546558439070087e-01 2.4989941051412257e+00 0 0 0
4264 2 4.9527557052192428e+00 5.4523197627137332e-01 3.1589273499885571e+00 1 0 1
1054 1 5.6201229499598186e+00 4.6529292656975263e-01 3.7840897710675834e+00 0 0 0
481 1 4.8311713837653230e+00 1.1728403193253967e+00 3.8055134366803496e+00 0 0 0
235 1 6.3731977525530059e+00 1.2622647167448164e+00 3.9019198493548304e+00 0 0 0
386 1 6.6851985936637535e+00 1.7877799144603984e-01 3.8921994256434727e+00 0 1 0
3856 2 7.3585027831971663e+00 6.7091104293787751e-01 3.4064843225878807e+00 0 0 0
2360 1 7.2739487434643433e+00 9.6602210353017715e-01 4.3087172507685363e+00 0 1 0
1625 1 3.8508288355534228e+00 4.6116511432748082e+00 4.6468594140003816e+00 0 0 0
1913 1 5.4233424399138279e+00 1.2283401100046778e+00 4.7485569859174230e+00 0 1 0
1950 1 9.2688236423752866e+00 1.1155386173981348e+00 3.5603035933278782e+00 0 0 0
4029 2 8.7223270570134304e+00 1.2192458422173094e+00 4.2895813770504452e+00 0 1 0
580 1 8.2279487724978875e+00 8.6268938305869436e-01 3.5977016193171694e+00 0 0 0
878 1 9.1309727189201624e+00 2.7653257911999007e-01 4.1915731013465720e+00 0 1 0
1906 1 8.2164936894789342e+00 4.3500897894768736e-01 4.5874095918540236e+00 0 1 0
3587 2 8.7048260390428212e+00 4.5109743398687456e+00 2.3356833969625406e+00 0 0 0
905 1 6.5391523727717726e-01 2.3392950403013453e+00 3.3628545490416619e+00 0 1 0
4263 2 7.0473868718806303e+00 4.6718502121066843e+00 2.1552966667715863e+00 1 0 0
2540 1 2.5023741222454488e-01 1.9269069856044225e+00 4.1993826353889601e+00 1 0 0
2545 1 7.9236174225531075e-01 2.9256712510586254e+00 4.3789517823411384e+00 1 0 0
3490 2 1.2728863936699346e+00 2.8701185970944167e+00 3.6646536026139329e+00 0 0 0
2562 1 1.2394857736264679e+00 2.0414822447912573e+00 4.1004983261190651e+00 1 0 -1
3080 1 1.7867361871215799e+00 2.3106264131398446e+00 3.1882247953835807e+00 1 0 0
3480 2 2.1976145287879563e+00 2.2195182646236802e+00 3.9756217845029918e+00 0 0 0
700 1 1.8540488946122387e+00 2.9206458889608400e+00 4.3282907342515857e+00 0 0 0
288 1 2.6946201909449758e+00 2.8698071569162935e+00 3.6246838476742407e+00 0 1 0
4208 2 2.9687743980498800e+00 2.7725959908127522e+00 4.4748920801579448e+00 1 0 0
543 1 2.9863728874289586e+00 1.8686562956794279e+00 4.1481913850177525e+00 0 0 0
1165 1 3.8821434783560398e+00 1.8638068933546637e+00 3.5057460404518284e+00 0 0 0
802 1 3.7986364284885936e+00 2.7170064092073933e+00 4.1237769375367437e+00 0 1 0
572 1 4.6033821103778907e+00 2.7456883581317189e+00 3.4418354716363151e+00 0 0 0
1167 1 4.6409429919671021e+00 2.1102369273975978e+00 4.2413658483316574e+00 0 0 0
208 1 1.0744330560965207e+00 4.6222881640910281e+00 4.7154306389061063e+00 0 0 0
3719 2 4.7079441286688075e+00 3.1019790687872364e+00 4.2406069426206567e+00 0 0 -1
4119 2 5.3291511040122277e+00 1.9383165062974816e+00 3.5592168450968651e+00 0 0 0
1007 1 5.6943526607368522e+00 2.1219896698151199e+00 4.3643782834833944e+00 0 0 0
2164 1 5.6394657664681382e+00 2.8715148698524655e+00 3.6490389083170243e+00 0 0 1
3884 2 6.2533010054909699e+00 2.7572175904138225e+00 4.4442657083660029e+00 0 0 1
1062 1 6.2234563768236431e+00 2.1084749055149286e+00 3.3104950252612815e+00 0 0 0
1194 1 7.5012260531698773e+00 1.5753902382700939e+00 3.4525542127563837e+00 0 1 0
814 1 6.9626714827817366e+00 2.0620884867415414e+00 4.2640779132512643e+00 0 1 0
1081 1 6.6620840306877618e+00 2.9174492773471945e+00 3.6755527924643672e+00 0 0 1
860 1 7.7478843372563713e+00 2.6990674905169016e+00 3.9698352365454186e+00 0 1 1
1484 1 7.8226748298973625e+00 4.0319012767768614e-02 1.8753440003606741e+00 0 0 0
962 1 3.7679713830586605e+00 4.7908714599054472e+00 2.0887263568243433e+00 0 0 0
1071 1 8.0541281536618676e+00 1.6905217230249918e+00 4.5446938332213014e+00 0 0 -1
1573 1 8.4843360196874933e+00 1.9568145269388262e+00 3.6557885962908467e+00 0 0 0
537 1 8.8528548907799589e+00 2.7412481784648604e+00 4.3438990857690563e+00 0 0 0
536 1 6.0089292691304674e-01 3.3689314540430968e+00 3.2718795119344719e+00 0 0 0
3021 1 4.9088438872537965e-01 4.3507979940384907e+00 3.8001000487538432e+00 1 0 0
114 1 1.3664216806939882e+00 3.8102207518812645e+00 3.9408257561707827e+00 0 0 0
124 1 6.1373108421377518e+00 3.6668845127299452e+00 4.3133137931507903e+00 0 0 0
177 1 2.7324652933407765e+00 3.9310675724262070e+00 3.1233038618081501e+00 0 0 0
2037 1 7.8466301682553681e+00 4.7977908994299598e+00 2.5601138268319183e+00 0 0 0
232 1 2.9085712567206006e+00 3.6287142799459966e+00 4.3551122558296349e+00 0 0 0
779 1 2.1463543563451268e+00 4.5127982226555243e+00 3.7695350224580526e+00 0 0 0
4148 2 2.2567371109375460e+00 3.5916843301453909e+00 3.8266061723646270e+00 1 0 0
691 1 4.6830835906855599e+00 4.7215214880648775e+00 3.8888081584212171e+00 0 0 0
628 1 7.6387424399665500e+00 4.7381474198848936e+00 4.7545954015380598e+00 0 0 0
3127 1 4.2063741636081149e+00 3.7273990752653554e+00 3.8498862946307102e+00 1 0 0
2076 1 9.5478703706581989e+00 1.9661556032786291e+00 3.0449948048088720e+00 0 0 1
1622 1 9.4312901409063041e+00 3.9920040401985823e+00 3.6854252652100663e+00 0 0 0
2108 1 8.0596736547512684e+00 3.5325623996617228e+00 4.7091364760057184e+00 0 0 0
559 1 3.3202246511069915e+00 4.3619424608423740e+00 3.8022652802931307e+00 0 0 0
3588 2 3.3545584233450403e+00 3.4215363174762912e+00 3.7479934421291947e+00 0 0 0
1505 1 5.2238400773852520e+00 3.8473616392792915e+00 3.7903197157527608e+00 0 0 0
3688 2 3.7497292618942315e+00 3.6679989397981299e+00 4.6474589198305676e+00 0 1 0
1191 1 6.1923922948423220e+00 4.6284835480085871e+00 3.7891904560274310e+00 0 0 0
906 1 9.6601585161198464e+00 2.7686359952575632e+00 2.2945053571412024e+00 0 1 0
1001 1 8.4211777359672233e+00 3.1881175155105210e+00 9.2467768751133259e-02 0 0 0
242 1 5.0038852529036930e+00 7.6730573119879936e-02 9.9385486737994388e-01 0 0 1
94 1 3.2992784754112225e+00 7.5552350616666292e-02 3.1862414151153868e+00 0 0 0
4278 2 1.2916385966122883e+00 4.6688312442892732e+00 3.9040130637055537e+00 1 1 -1
3657 2 8.1950039921338549e-02 3.4666339243254520e+00 2.4882794069611540e+00 1 1 0
3590 2 7.0183260187109493e+00 4.8083704518210579e+00 4.1204418473667106e+00 0 0 -1
1018 1 3.0199683991311272e+00 4.7988468170014329e+00 1.1416769967368714e+00 0 0 0
1531 1 9.4093648872908044e+00 5.9238168850209616e-01 2.7523598021443375e-02 0 0 1
1050 1 6.9706869897759809e+00 2.9581839863980810e+00 2.1259972962751821e-02 0 0 0
1488 1 7.3027761847801820e+00 4.7305921917288183e+00 3.3182166392002665e-02 0 0 0
2021 1 3.5382185524523063e-01 5.4224108060044951e-01 5.3892497492211726e+00 1 0 0
868 1 1.0070760670309886e+00 1.0685181954454293e+00 6.0352011144534821e+00 0 1 0
3825 2 1.7105521146138314e-01 1.1537540761381999e+00 5.9177701440980179e+00 0 1 1
84 1 9.4841518772090139e-01 1.4658510897049506e+00 4.9876948774051231e+00 0 0 -1
2071 1 9.4784149438327461e+00 4.3216233031216129e+00 6.9726820147894797e+00 0 0 0
2986 1 1.4877238019199284e+00 6.4371294178952454e-01 5.0898439066210299e+00 1 0 0
3545 2 2.2980860343400713e+00 9.4412995902338070e-01 5.3234768426608481e+00 0 1 0
199 1 1.9380128897894069e+00 6.1821450590636096e-01 6.2585190266288784e+00 0 0 0
4297 2 4.9889766438069598e+00 2.5834068045831210e-01 8.0998148433585708e+00 1 1 1
3722 2 4.1946324553335037e+00 1.4410901802617840e-01 5.9327747698263957e+00 0 1 -1
617 1 7.0564615559772328e+00 4.7694246901161295e+00 7.9546362167145039e+00 0 0 0
706 1 3.0598949915259950e+00 6.7501302181714207e-01 5.9448483277889572e+00 0 0 0
3811 2 2.9724178480726198e+00 3.1413924524871295e-01 5.0415600475185318e+00 0 1 0
3513 2 3.6892866971742171e+00 1.3961982338795509e+00 5.4979283848680582e+00 0 0 0
842 1 3.8579346116892053e+00 5.6062572410034506e-01 5.1927078369779691e+00 0 1 0
913 1 4.1937720914842700e+00 1.0554019772482115e+00 6.1313643068457742e+00 0 1 0
1069 1 4.4729977554817841e+00 1.4846076436892841e+00 5.1849778618504700e+00 0 0 0
501 1 1.1805122475406253e+00 2.3145423926575255e+00 9.5251008667245767e+00 0 0 -1
3611 2 5.7423793385205197e+00 4.7614742099218688e-01 5.4046428218692322e+00 0 0 1
3752 2 5.2061881018078910e+00 1.3719957734090016e+00 5.6397212981434146e+00 0 0 0
526 1 4.8907464901390378e+00 4.7043171597552291e-01 5.5282177026361961e+00 0 0 -1
1080 1 5.5448883852995809e+00 8.1710340076052168e-01 6.3189360733778335e+00 0 0 0
1514 1 7.6865259190125288e+00 3.2242310573113930e+00 8.9808305354199316e+00 0 0 -1
1128 1 6.0823516485342806e+00 1.3186026247302169e+00 5.6173150569961852e+00 0 0 1
724 1 7.2920590008282575e+00 4.4937329234522516e-01 5.2726812066512663e+00 0 1 0
1498 1 6.4112657162382298e+00 2.8334146042613928e-01 6.0459094142011027e+00 0 0 0
1683 1 7.2007593619430423e+00 8.5712087862557862e-01 6.2388322773689531e+00 0 0 0
1199 1 7.1105002109523010e+00 1.5332813004989341e+00 5.1561944699667777e+00 0 1 0
3749 2 9.4187424474571593e+00 3.7850368581631315e+00 8.2192359147123941e+00 0 0 0
4122 2 7.9580648104768787e+00 1.0344207967099830e+00 5.1731235596658136e+00 0 0 0
1349 1 8.2276651371192440e+00 6.0304599607832776e-01 5.9436043571127479e+00 0 1 0
889 1 8.8286984917782920e+00 1.3240588756205305e+00 5.3358681229400862e+00 0 1 0
2044 1 8.9368931923684780e+00 2.1850377674114252e-01 5.2678374291379200e+00 0 0 0
1654 1 8.9956823405708910e+00 1.4852201931388016e+00 6.3284393814619877e+00 0 0 0
1907 1 9.2710061098339249e+00 4.2074675515324050e-01 6.2325003376305652e+00 0 1 0
282 1 6.0458300332817094e-01 2.0258975826432546e+00 5.8134514602493912e+00 0 1 -1
155 1 4.4940661345731758e-01 2.9874596247083303e+00 5.3851044760786664e+00 0 0 0
134 1 1.4122146637207105e+00 2.9889093841873748e+00 6.0609209242409294e+00 0 0 0
1021 1 9.3854720542380932e+00 3.3627156605614537e+00 9.2901610573133926e+00 0 0 0
1566 1 7.7652846956521033e+00 4.0352675095948776e+00 8.2710979618175084e+00 0 0 0
110 1 1.9185495259083236e+00 1.6341992309977629e+00 5.7869521326611633e+00 0 0 -1
26 1 1.4701821066788203e+00 2.4070581752239462e+00 5.1956521782338152e+00 0 0 0
695 1 3.0113251039720885e+00 1.6949264072311514e+00 5.8688172352852508e+00 0 0 0
602 1 2.5439256850622485e+00 2.2895262394229743e+00 5.1065187197085580e+00 0 0 0
2586 1 2.3230882326735438e+00 2.4778591525534521e+00 6.2396891072783260e+00 1 0 0
4302 2 3.1374090864979465e+00 2.5896597188587225e+00 5.8645519594474065e+00 1 1 0
1180 1 3.9726870165626709e+00 2.1068027253848793e+00 5.9686363556700224e+00 0 0 0
1482 1 4.3900515121389452e+00 2.8300612978345794e+00 5.0851673137019926e+00 0 0 0
610 1 3.6195630349886443e+00 2.0500596833879117e+00 4.9687438634022305e+00 0 0 0
675 1 3.9350620244969461e+00 3.1355501689014322e+00 6.2414652461708293e+00 0 0 0
676 1 3.3915276812539568e+00 3.0555854033837302e+00 5.1779331930824277e+00 0 0 0
1114 1 5.3223230246781759e+00 2.1398808534847347e+00 5.3126350357189400e+00 0 0 0
1187 1 6.0007412633450361e+00 2.1458703657842015e+00 6.1667506010335122e+00 0 0 0
659 1 4.9592173169397693e+00 2.8406061670308338e+00 6.0190082344183899e+00 0 0 0
3713 2 5.7456957300438205e+00 2.7538621091650142e+00 5.6536438449426063e+00 0 0 0
698 1 4.9465260847914196e+00 1.8685161412720459e+00 6.3834748627191509e+00 0 0 0
1177 1 6.5031909393745417e+00 2.4011391580777235e+00 5.2273844940574286e+00 0 0 0
1853 1 7.0902446821373761e+00 1.9540066342478444e+00 6.0988198150703434e+00 0 1 1
3123 1 6.9713329592660358e+00 3.0198388343708222e+00 5.9220458162179241e+00 1 0 0
3577 2 7.7299849941681051e+00 2.6412888667433942e+00 6.1088241169861606e+00 0 0 -1
1676 1 7.6957771464700508e+00 2.5346057264120949e+00 5.1468851348601348e+00 0 0 0
1647 1 8.0807060844658327e+00 1.7762976474568846e+00 5.7633576231906538e+00 0 0 0
1049 1 8.8454343227150023e+00 2.4895752479327120e+00 5.3359358516357398e+00 0 0 0
3518 2 5.7436979757999547e+00 6.5584511764389786e-02 6.7861983185605093e+00 0 1 0
1153 1 8.6124121584470963e+00 2.5775419036456277e+00 6.4391664680071674e+00 0 0 0
3714 2 6.4227654946160961e-01 3.3971464269858074e+00 6.1762682402387972e+00 0 0 0
2590 1 7.7133931632570141e-01 4.1430479403613392e+00 5.7548079100418574e+00 1 0 0
2453 1 1.2674141022100096e+00 3.4945947881078974e+00 5.0742895207267509e+00 1 0 0
21 1 3.4330610683909293e+00 1.8774441186341166e+00 9.5756762076776010e+00 0 0 -1
624 1 7.8687574697876324e+00 2.3055019922311080e+00 9.5287126663792545e+00 0 0 0
1079 1 2.2629435757858616e+00 3.2635111819230485e+00 5.2145625903557615e+00 0 0 0
223 1 2.0288183449903094e+00 4.0373325965446485e+00 5.8566386895775038e+00 0 0 0
1133 1 2.9596009730285093e+00 3.4701773067469848e+00 6.0657546485908949e+00 0 0 0
153 1 3.1180966772777281e+00 4.2207489418601325e+00 5.2524587408666408e+00 0 0 1
1115 1 9.3536634229686459e+00 4.2540201360978660e+00 5.9114188820733453e+00 0 0 0
601 1 4.1102077407339630e+00 3.9589493804015916e+00 5.5479817996008682e+00 0 0 0
1093 1 5.2020413779716836e+00 3.8065562284034584e+00 5.7394069782570618e+00 0 0 0
1057 1 6.0046739349111435e+00 4.6309741732251792e+00 5.7441204697284984e+00 0 0 0
2088 1 6.2733379688522737e+00 3.5043825021655088e+00 5.3529761097662680e+00 0 0 0
127 1 5.9693138967866508e+00 3.2267686567872640e+00 6.3758881989882514e+00 0 0 0
784 1 9.5088899466591936e+00 1.2475509137620489e+00 7.2246568479253641e+00 0 1 0