LAMMPS data file via write_data, version 12 Dec 2018, timestep = 447480

4320 atoms
2 atom types

0.0000000000000000e+00 1.9309999999999999e+01 xlo xhi
0.0000000000000000e+00 1.9309999999999999e+01 ylo yhi
0.0000000000000000e+00 9.6549999999999994e+00 zlo zhi
6.5460899999999995e+00 0.0000000000000000e+00 0.0000000000000000e+00 xy xz yz

Masses

1 1
2 1

Atoms # atomic

4263 2 5.4814066071559360e+00 4.3398703602194715e+00 2.2025399446146237e+00 1 0 0
1526 1 3.4496803184316445e+00 3.1298422556961083e+00 4.7864664584774710e+00 0 0 0
1433 1 8.7804444522238256e+00 4.0884193274900476e+00 1.4654121328703984e+00 0 0 0
2159 1 9.0141475898328771e+00 2.8850449631893107e+00 4.0970741350792093e+00 0 0 0
1684 1 1.0100323372860293e+01 2.9508280896417620e+00 2.5280903122078433e+00 0 0 0
1502 1 7.8105852946915633e+00 4.2798653789347414e+00 1.9040573068177027e+00 0 0 0
1103 1 7.7327536568435624e+00 3.1373258088495898e-01 4.5378969517237708e+00 0 0 0
2513 1 8.2155330548702494e+00 2.1225958105281886e-01 1.1218101298221581e+00 0 0 0
1979 1 8.6443959440472646e+00 1.9837002277258649e+00 2.4263284416428248e+00 0 0 0
851 1 1.1718380062388856e+00 1.5174624123067757e+00 6.5342365006456271e-01 0 1 0
253 1 1.6945213060842157e+00 8.8064508080985182e-01 1.2805663349322189e+00 0 1 0
1190 1 2.1705976337367758e+00 1.8932907350033665e+00 1.2322115423007549e+00 0 0 1
3918 2 1.9654896641148958e+00 1.8121636528794849e+00 3.5381680978074159e-01 0 1 0
30 1 5.3708222608203826e+00 3.7264840367731278e+00 3.9392008620491099e+00 0 0 0
1127 1 2.0389971637430619e+00 9.5018413077094266e-01 2.7605263971695809e-01 0 0 1
1554 1 2.9981574349175242e+00 1.2772019186196975e+00 9.0898078617146716e-01 0 0 1
4116 2 2.5537947714197160e+00 8.8634978289361233e-01 1.5436583290834933e+00 1 0 -1
95 1 3.4399688785191858e+00 5.5544147445843095e-01 1.5985462806715323e+00 0 0 0
1571 1 7.2553650390501767e+00 4.7588335378275124e+00 2.6865675916506353e+00 0 0 0
2275 1 9.9662254244764465e+00 3.2593792613514840e+00 1.3784219679288210e+00 0 1 0
870 1 3.8483990924049056e+00 1.5380402463283585e+00 1.3912296519531804e+00 0 1 1
1798 1 4.4185598582077965e+00 7.1742916861560802e-01 1.0891102814197389e+00 0 1 0
543 1 9.7360054823493436e-01 2.6188614845322187e+00 4.1216923966428638e+00 0 0 0
1711 1 8.0273674487126971e+00 2.3453182922237956e+00 5.4387722539168759e-01 0 1 0
1615 1 5.5037980959515593e+00 1.0600800393282279e+00 1.1960996099629080e+00 0 0 1
1678 1 7.9974614553003587e+00 2.6765228447855436e+00 3.0598875995014874e+00 0 0 1
987 1 4.7807038130769319e+00 1.3893721397567200e+00 3.7395057923089897e-01 0 0 0
1022 1 2.3855209993373441e+00 4.7313991227515526e+00 3.1017358337562606e+00 0 0 -1
1485 1 9.1568967814519020e+00 4.3742681987311810e-01 2.4754840419029369e+00 0 0 0
3468 2 6.3322703781654823e+00 7.5751485364351845e-01 1.1871567014313558e+00 -1 0 1
2132 1 8.5207791312919383e+00 1.2139694219085573e-01 3.7567143229625919e+00 0 0 0
1470 1 8.1085206388160795e+00 2.4961179078217879e+00 1.6942911058035739e+00 0 0 0
2386 1 9.8189984122214788e+00 4.8850559030353174e-01 1.6284825289458675e+00 0 1 1
2131 1 1.0857880144114571e+01 4.4499151939020729e+00 3.3312321290600768e+00 0 0 0
115 1 5.6058127693227178e-01 8.9447326703759278e-01 1.2394615178683106e+00 0 0 0
2081 1 9.5312702159132794e+00 1.8866501607115091e+00 4.1047385125587592e+00 0 0 0
2460 1 9.8073227066886375e+00 3.6224952386770486e+00 4.0786824800840789e+00 0 0 0
3590 2 5.2842728374655001e+00 4.5647304307500995e+00 4.1440974244882538e+00 0 0 -1
1160 1 7.2711021806380449e+00 5.2405109051967724e-01 1.4763066198161048e+00 0 0 0
1001 1 6.4675062348149721e+00 2.5116841073281635e+00 2.4451391002192685e-01 0 0 0
622 1 1.2128492002412199e+00 3.2135028127853253e+00 7.5142563099456161e-01 0 0 1
3750 2 1.4002963430499915e+00 2.3416802031697621e+00 9.5457163351745256e-01 0 0 1
34 1 2.2560183395361353e+00 2.6657743108319463e+00 5.4405697168279699e-01 0 0 0
1065 1 1.8377890333972706e+00 2.8600980160491969e+00 1.5097368571663403e+00 0 0 0
968 1 3.3150804184291265e+00 2.3596289646724564e+00 5.7742734637432769e-01 0 0 1
3708 2 3.1356307553431213e+00 1.9538380999674025e+00 1.4503947605131722e+00 0 0 0
1166 1 2.8839416401048501e+00 2.9904358631650449e+00 1.3877087317814427e+00 0 0 1
3768 2 3.3081085179865450e+00 3.2596662948324657e+00 5.8819840584175731e-01 0 1 0
3676 2 7.6029448523440113e+00 9.1503202890470747e-01 2.3568250250567715e+00 0 1 1
3757 2 4.7971827853744209e+00 1.4918149547722808e+00 1.2398561068674350e+00 0 0 1
1764 1 4.3702980204125392e+00 2.2698348692330228e+00 8.4049147893658538e-01 0 1 0
1617 1 5.4493837980125015e+00 2.0804693812681792e+00 1.0544818107561784e+00 0 0 1
2174 1 3.5918304126033975e+00 3.7617260087763915e-01 5.4479460222935483e-01 0 1 0
1499 1 6.4410236381784731e+00 1.6784363921894014e+00 1.0962146454320212e+00 0 0 1
1544 1 8.2341348871376656e+00 1.2442125203103584e+00 4.8434069930326912e-01 0 0 0
1946 1 9.3854074451802898e+00 3.6447640870082774e+00 2.3054916205634086e+00 0 0 0
1965 1 8.2519430051580791e+00 1.1760748179129279e+00 1.7688666907170012e+00 0 0 0
1145 1 7.9002325431159566e+00 3.9355308696859743e+00 4.0621700161931864e+00 0 0 0
2084 1 8.1490408744504919e+00 3.3199235505868065e+00 1.2761609956719175e-01 0 0 1
4242 2 8.8095577246614098e+00 3.8640101789477349e-01 1.6950844355425192e+00 0 0 1
2048 1 1.0469018414054013e+01 4.0208561309219562e+00 2.4131879986914986e+00 0 0 0
3121 1 8.0348765468911942e+00 2.9795872537177615e+00 4.6233030298240863e+00 0 0 0
50 1 3.9350208448362691e+00 4.7141325948645649e+00 1.5844501276164962e+00 0 0 0
1513 1 6.3686550155166746e+00 4.0993254071979210e+00 8.5033162076822633e-01 0 0 0
952 1 7.5204629462352059e+00 1.6247176442471194e+00 1.2230398520149395e+00 0 0 0
656 1 2.4882066772073239e+00 3.6530325642911672e+00 5.3706819779619963e-01 0 0 1
574 1 3.0431159218755788e+00 4.1147587300339810e+00 4.7804978999722714e+00 0 0 0
717 1 1.7073615582647266e+00 4.2798325716054482e+00 7.6063885405855247e-01 0 0 1
1527 1 1.0047227315807538e+01 3.1638467806584987e+00 2.3785474051362102e-01 0 0 0
668 1 2.3080661429275890e+00 3.8732639989156170e+00 1.6054683620252508e+00 0 0 0
2201 1 7.9067281986770048e+00 3.4499603804578776e+00 1.1415931451690253e+00 0 1 0
1472 1 8.3784729310942421e+00 3.4610240388878712e+00 2.2160634311730609e+00 0 0 0
1019 1 4.0192613883320609e+00 3.3128171236682618e+00 1.0951627802787836e+00 0 0 0
1198 1 3.2220461748107647e+00 4.0228800938855880e+00 1.1739459303320952e+00 0 1 0
3627 2 4.1278175282683565e+00 4.2420013817643749e+00 8.2681816268497088e-01 0 0 1
1870 1 7.5466115537575753e+00 5.2834061410249133e-01 4.3670150264380031e-01 0 1 1
3503 2 7.1363548148901037e+00 1.5571830841072420e+00 3.8523291220714140e+00 -1 0 2
567 1 5.0993220095472154e+00 3.1197117897849056e+00 1.1688646737052262e+00 0 0 0
669 1 4.7295146071213372e+00 4.0706239211616033e+00 1.3814996348742432e+00 0 0 1
3865 2 5.4981606833432277e+00 3.9751402063427053e+00 8.8431765905251636e-01 0 0 0
1051 1 4.7051328973947690e+00 3.7026572964725424e+00 4.0355032187360934e-01 0 0 0
1783 1 3.6210450728108534e+00 2.2405844806807199e-01 3.2170814335799878e+00 0 1 0
3588 2 1.6612167392183559e+00 4.1834074614178292e+00 3.5127219435813299e+00 0 0 0
3771 2 8.2113788133544183e+00 3.1216850661731166e+00 3.7972414980841851e+00 0 1 -1
503 1 7.1608445747177640e+00 2.5492916353751003e+00 1.0238078568489704e+00 0 0 0
1506 1 6.1435997559857354e+00 2.8610896760739015e+00 1.2025261539155119e+00 0 0 0
1564 1 7.1154571537849209e+00 3.4032672034889089e+00 4.3857866479415486e-01 0 0 1
1572 1 6.9330112743394094e+00 3.6404447159811442e+00 1.5721712520452087e+00 0 0 1
1671 1 8.8786195801971406e+00 3.0121633926104145e+00 9.2652225097050522e-01 0 0 1
1029 1 5.4472575222908830e+00 6.3207091415919370e-01 1.6832557980443133e-01 0 0 0
2006 1 9.4236347736079438e+00 3.9463419597411789e+00 7.0284311762206719e-01 0 0 0
94 1 8.5934681418995473e-01 7.8030312327601425e-01 3.3634799834967177e+00 0 0 0
2145 1 8.6527248644280981e+00 1.9309411685914317e+00 3.4716075926163730e+00 0 0 0
2468 1 8.7459208817304273e+00 1.8945156213447147e+00 1.0835733058012791e+00 0 0 0
1076 1 1.0016472303132948e+01 1.3155901630310096e+00 8.2819364229885040e-01 0 0 0
3482 2 7.6530083649808258e+00 4.0259253997977700e+00 7.3082857217560471e-02 0 0 1
2649 1 9.8274923957930387e+00 2.6649035575765470e+00 3.5081873402948047e+00 0 0 0
1562 1 5.6771518270774290e+00 4.7016652332818181e+00 1.3196806881968211e+00 0 0 1
1000 1 1.2164034035753852e+00 1.8140950302562548e+00 1.6350352019969914e+00 0 0 0
1137 1 8.5759367239442810e+00 4.3711477271842014e+00 2.7085533967688886e+00 0 0 1
817 1 1.0163157226817958e+00 1.0547653246011774e+00 2.3095261843241364e+00 0 1 0
159 1 2.0032637190066112e+00 1.2851139641669413e+00 2.1402482637631590e+00 0 0 0
992 1 1.1960320632352714e+00 1.7518245245459187e+00 3.1546257995379232e+00 0 0 0
966 1 1.8551780981464285e+00 6.7152288648327441e-01 2.9808413823488951e+00 0 0 0
1134 1 2.3749954765044459e+00 1.6975721717859764e+00 2.9796377521212536e+00 0 0 1
1040 1 3.0409706875590250e+00 1.3661993459776278e+00 2.0865133814893810e+00 0 0 0
1358 1 2.8084047299369863e+00 5.1969337077915134e-01 2.6059089754518676e+00 0 1 1
1621 1 6.8634576703170014e+00 3.9382885722174308e+00 3.3016580962215136e+00 0 0 0
3878 2 3.6444267701665933e+00 9.0079910671899477e-01 2.5747592007268469e+00 0 0 1
631 1 3.3223234783548152e+00 1.3303370454696490e+00 3.3011329852030697e+00 0 0 0
3756 2 5.1112327345070225e+00 3.6871983070788628e-01 1.6960329235235094e+00 0 0 1
3798 2 9.1818855685599807e+00 4.5773852396562248e-01 3.3408539824820069e+00 0 1 0
575 1 4.4078685822716341e+00 1.0101574441891472e+00 3.0184970319851092e+00 0 0 0
722 1 4.7265931614575249e+00 1.0488115861420420e+00 1.9925878575458491e+00 0 1 0
1147 1 5.2244311767365783e+00 2.8593890175320508e-01 2.8933858934532397e+00 0 0 1
1351 1 5.8995684102450152e+00 3.6589176405919793e-01 2.0056093794437349e+00 0 1 0
1493 1 9.9228121682190551e+00 8.5039294722588032e-01 4.0326685994624585e+00 0 0 0
2538 1 9.0399651206366407e+00 8.9452641402539568e-01 9.8802063593030598e-01 0 0 0
1457 1 8.7825026884669590e+00 3.6983966025200874e+00 3.4645340737845203e+00 0 0 0
955 1 6.1167225251477282e+00 4.4942686457715029e+00 3.7825094339704024e+00 0 0 0
3867 2 8.2592790024225611e+00 4.5194310372261421e+00 4.5805100730254544e+00 0 0 0
4228 2 1.1474619061256153e+00 4.0395883421467427e-01 1.7749730312351411e+00 1 0 0
1071 1 5.6541169440526211e+00 1.3647519473820278e+00 4.5676095608433567e+00 0 0 -1
3847 2 7.8341393931590799e+00 4.4905851257004539e+00 3.3694913425226045e+00 0 0 0
1488 1 5.7270513674998842e+00 4.3538204787426897e+00 9.3949415468770128e-02 0 0 0
4238 2 1.7519333646345543e+00 4.5133157775434114e+00 1.6802597583526346e+00 1 0 0
4044 2 1.0731461246956435e+01 3.8117880792984624e+00 1.5482983948628561e+00 0 1 0
2544 1 9.9822378566151642e+00 2.7712370558552393e+00 4.5618819346147701e+00 0 0 0
1689 1 8.6144872576068448e+00 2.1065376665339199e+00 4.7660352248866991e+00 0 0 0
1376 1 1.6708658133451957e+00 2.4359405109825252e+00 2.4875521545567998e+00 0 1 0
3606 2 1.5166740044290812e+00 3.2827277204622214e+00 2.3293338876616372e+00 0 0 0
2941 1 2.3897171967102446e+00 3.2320990544940380e+00 2.4128522400140802e+00 1 0 0
3608 2 2.3762024354107081e+00 2.6298421945984032e+00 2.9936895731891555e+00 0 0 0
3128 1 1.7251365356626454e+00 3.3214506290218848e+00 3.1882273441280411e+00 1 0 0
555 1 2.6264288702228136e+00 2.3118197856179523e+00 2.0692730905793058e+00 0 0 0
505 1 3.7238900129671935e+00 2.5215721322153692e+00 1.7276059576507670e+00 0 0 0
663 1 3.2291057702603663e+00 2.3516252121745032e+00 2.8975211107466157e+00 0 0 0
3686 2 3.1895664776869888e+00 2.9886174544079505e+00 2.2356464457710215e+00 0 1 0
1446 1 4.2084852390043199e+00 2.8320744462919722e+00 2.6648313011374123e+00 0 0 0
568 1 3.8973070977605655e+00 1.7017645061049771e+00 2.4583231825451337e+00 0 0 0
3703 2 4.5412708688485068e+00 2.9854108896467624e+00 1.8709208169590223e+00 0 0 0
3533 2 5.2280753584161737e+00 1.1908084333745750e+00 2.7362536660686718e+00 0 1 0
1462 1 4.6650297183306657e+00 2.0917454455887068e+00 1.8605954981754780e+00 0 0 0
1511 1 5.0311123603483159e+00 2.0472734498037877e+00 2.9440687518570097e+00 0 0 0
1561 1 5.5111706526781736e+00 2.7003486238998580e+00 2.1364460040187865e+00 0 0 0
2197 1 6.0860609368197061e+00 9.7965437874840844e-01 2.8930297629389417e+00 0 1 0
566 1 5.7291529470068587e+00 1.6528689329394253e+00 2.1156516312753335e+00 0 0 0
1437 1 6.6494221704191281e+00 2.3450369822634816e+00 1.9715321959273122e+00 0 0 0
2101 1 6.6593067628988107e+00 1.1839147538630164e+00 1.9902895097115396e+00 0 0 1
3946 2 6.5915931910508476e+00 1.7342384668557467e+00 2.5870098674496202e+00 0 1 0
1721 1 6.0765887516829622e+00 2.3169267665294457e+00 2.8824778423040218e+00 0 1 0
2421 1 7.0632231022362006e+00 2.2499528670887128e+00 3.2334900816551149e+00 0 0 0
2689 1 8.3762521032218462e+00 9.9918009890437598e-01 2.7617713737156917e+00 0 0 0
624 1 5.7698815895865021e+00 1.6290444276764930e+00 8.6776358346914925e-02 0 0 1
1191 1 4.2983154543951407e+00 4.5591451877571547e+00 3.8309433175203349e+00 0 0 0
1696 1 6.8285126499843232e+00 3.7820580357569216e+00 4.3797894280239174e+00 0 0 0
1489 1 9.3728732948416287e+00 1.2734993210550283e+00 3.2061013897638966e+00 0 0 0
2037 1 6.3036912123853428e+00 4.3142382912231554e+00 2.5236301182236476e+00 0 0 0
1031 1 1.0773885366183272e+01 4.1742802367115255e+00 7.3395164367701582e-01 0 0 0
2112 1 1.0019295014772215e+01 4.3008636286621407e+00 1.5159217293032221e+00 0 0 0
1588 1 8.6483682600457215e+00 4.6566891227209029e+00 3.7019395062894147e+00 0 0 0
2141 1 7.3853282974864447e+00 4.3330548433714613e+00 8.4098568232212600e-01 0 0 1
242 1 2.6114818546896212e+00 2.2443166745311663e-01 9.0875470424400939e-01 0 0 1
2592 1 1.0248151234191509e+01 4.6428109385828611e+00 4.4372989658655646e+00 0 0 0
1039 1 2.9550595853308237e+00 4.3299434189425359e+00 2.3602014482663178e+00 0 0 0
4214 2 7.2244393063798606e-01 2.0773291383896524e+00 2.4716269164744493e+00 1 0 0
3619 2 2.4177904213826009e+00 3.7981966896063764e+00 3.1245163677002741e+00 0 0 1
586 1 1.8207743129100598e+00 4.1653599872744529e+00 2.5087161864604872e+00 0 0 0
1050 1 5.0438248481859755e+00 2.5022780435292593e+00 1.2130004507559879e-01 0 0 0
1682 1 6.3488535562006234e+00 3.1202527850237938e+00 3.6583595644525704e+00 0 0 0
1440 1 3.2630449446079801e+00 3.5099071331272205e+00 2.9226110670742371e+00 0 0 0
664 1 3.8509525896531054e+00 3.6755143712566838e+00 2.0670419256885229e+00 0 0 0
550 1 3.7603872282419695e+00 4.6064234651686267e+00 2.9506751252330967e+00 0 0 0
655 1 4.6401672292301122e+00 4.6238849509854978e+00 2.3204114271209795e+00 0 0 1
994 1 4.3581147084674976e+00 3.7136262095880119e+00 3.2527410556174976e+00 0 0 0
1428 1 5.8258667247681810e+00 3.7016962164884553e+00 1.6577935095558414e+00 0 0 0
1613 1 8.8492343286449966e+00 3.9080218627704735e+00 4.5505125649508500e+00 0 0 0
534 1 5.4515738779505494e+00 3.1279416751197506e+00 3.0893861982685311e+00 0 0 0
1271 1 4.9314487852369231e+00 3.6218889518010990e+00 2.3084080477562559e+00 0 1 0
1474 1 9.6106031576134008e+00 4.3130730970438602e+00 3.0865396513112793e+00 0 0 0
3838 2 6.0340081760372533e+00 3.7791404218734765e+00 3.1755116864633797e+00 0 0 0
3127 1 2.4071499919033990e+00 4.1050999181092118e+00 3.9405619340841218e+00 1 0 0
1072 1 7.3676851271617236e+00 2.9993606699365576e+00 2.2206955570613007e+00 0 0 0
1535 1 6.4580682115113532e+00 3.2895631688007514e+00 2.5290516902770461e+00 0 0 0
3964 2 7.1588795820068185e+00 3.1381605608741592e+00 3.0803915382143385e+00 0 1 0
1858 1 7.0194059034036318e+00 1.2515407892087185e+00 4.6196293242251070e+00 0 1 0
1988 1 1.0066067801162340e+01 1.9961416645003860e+00 1.6696978429549909e+00 0 0 0
2076 1 7.1169962400031501e+00 1.2157101702293815e+00 2.9948888198797237e+00 0 0 1
2850 1 9.2673901364400937e+00 1.3451356947587316e+00 1.9434106613415096e+00 0 1 0
2171 1 1.0520310834202975e+01 3.4895630833658782e+00 3.3856595221033357e+00 0 0 0
1607 1 8.3999721300758612e+00 4.2618635450818561e+00 4.7293727299569160e-01 0 0 1
599 1 2.0321661874760641e+00 5.0665071547919305e-01 4.1725364938161569e+00 0 0 0
4129 2 9.6798278733655128e+00 3.4700875232743904e+00 3.1659159252342288e+00 1 0 1
1519 1 8.0705577314735031e+00 2.0328309493496069e-01 2.1490152738327142e+00 0 0 0
4133 2 9.3528846158666834e+00 4.3202278843639865e+00 4.0107218553525712e+00 0 0 0
2631 1 9.6897588252402880e+00 2.0717103487851647e+00 2.6794762540431321e+00 0 0 0
548 1 4.8783946309694892e+00 2.8231284047068241e+00 4.6917050954921784e+00 0 0 0
1880 1 7.7737723850864722e+00 3.7117794202274563e+00 2.9789466183445548e+00 0 0 0
1584 1 5.4052056133048410e-01 1.5923679013962382e+00 3.9590421204212700e+00 0 0 0
3464 2 1.5723400762282134e+00 1.1795244121754980e+00 3.6971918269548754e+00 0 0 -1
652 1 1.4582191128645206e+00 1.7009489002534526e+00 4.4552466712956713e+00 0 0 0
1622 1 7.3474175872355456e+00 3.0610297908975079e+00 3.8427620689681254e+00 0 0 0
991 1 6.9350047156639558e+00 2.2297937840363977e-01 2.4036894758971123e+00 0 0 0
4264 2 2.5154602760079019e+00 8.0952855743263896e-01 3.4380244697181874e+00 1 0 1
1054 1 3.1320378282774199e+00 5.6866554044495543e-01 4.1396559356906062e+00 0 0 0
481 1 2.4012445355259509e+00 1.4636943617898817e+00 4.0710222990298357e+00 0 0 0
235 1 4.0842708081088333e+00 9.2218893149950010e-01 3.9974958258741453e+00 0 0 0
887 1 9.8990086286265588e-01 5.2851105369866791e-01 4.4125371122583319e+00 0 1 0
3856 2 4.5217129424930480e+00 2.3061871574075135e-01 3.4560831565982175e+00 0 0 0
2360 1 4.9865987650506725e+00 5.4641414269373234e-01 4.3476507611866770e+00 0 1 0
1066 1 9.6281328619827988e+00 2.3837700609958592e+00 7.7097917130487048e-01 0 0 0
3587 2 7.1637843308745843e+00 3.8361559060354349e+00 2.4105724936964981e+00 0 0 0
1950 1 6.9548481950172567e+00 5.9212882179784465e-01 3.7553881208631275e+00 0 0 0
4029 2 6.3848133844148798e+00 6.4511362014882323e-01 4.4329673376687069e+00 0 1 0
580 1 5.9267960037967420e+00 3.4615764154098994e-01 3.7354577583493009e+00 0 0 0
513 1 3.9121985531285555e+00 4.6654136398942567e+00 4.8207990477010050e+00 0 0 0
1538 1 7.6785748397913629e+00 1.5588426115639104e-01 3.1056360670936298e+00 0 0 0
1425 1 7.7443079690250558e+00 2.1409763223521394e+00 4.0462013013971099e+00 0 1 0
4296 2 6.6473828765382823e+00 4.6314325058560453e+00 4.5267577019680552e+00 1 0 0
1242 1 3.7687805554852054e+00 1.4709680842741240e+00 1.9562667505929232e-01 0 1 0
906 1 7.4989417079589700e+00 1.8532187308677668e+00 2.2790043210248676e+00 0 1 0
744 1 4.8791363267920458e+00 4.7745071283615772e+00 6.7771363276154428e-01 0 1 0
3772 2 1.2095248403994514e+00 6.0027229277120808e-01 5.9968782044601654e-01 0 1 1
1536 1 6.7404450446643027e+00 4.6809271468378730e+00 1.6373422716900510e+00 0 0 0
1098 1 7.2645331089048515e+00 1.5956056861210623e+00 2.3508369111268029e-01 0 0 1
2854 1 8.8910554344293580e+00 1.0553457305785583e+00 4.1415125355065836e+00 0 1 0
1357 1 4.3491218217108676e+00 1.5613716620702173e-01 2.2016960113083819e+00 0 1 1
1441 1 9.1995387589383864e+00 1.5999218376989237e+00 1.6623830121388672e-01 0 0 0
3775 2 6.1526534139215006e+00 6.6495611047094311e-02 2.8940219610085594e+00 0 1 0
3688 2 2.0819459820791053e+00 4.1006889879530437e+00 4.7709541495123693e+00 0 1 0
1165 1 1.8880193686982358e+00 2.3317046620718647e+00 3.6275505841037159e+00 0 0 0
802 1 1.7946421402943855e+00 3.3489700248979948e+00 4.2671666015044485e+00 0 1 0
572 1 2.6758339996444720e+00 3.1395098659552310e+00 3.6363965902022946e+00 0 0 0
1167 1 2.5356808674808375e+00 2.4839779204324057e+00 4.4622129281224643e+00 0 0 0
1117 1 3.6618631936224677e+00 3.8860508659299025e+00 1.4213839311935647e-01 0 0 1
3719 2 2.6458267422089299e+00 3.4115264892499337e+00 4.4403970576706566e+00 0 0 -1
4119 2 2.8619239085524955e+00 2.2059024941241701e+00 3.6853310099576344e+00 0 0 0
1007 1 3.4865820894860695e+00 1.9738142210973402e+00 4.3565753202010189e+00 0 0 0
2164 1 3.6971399031759331e+00 2.8971769000299150e+00 3.7138921564568963e+00 0 0 1
3884 2 4.1248134048067335e+00 2.6293477485429335e+00 4.4555823452529157e+00 0 0 1
1062 1 4.1614845426000091e+00 1.9577653784063311e+00 3.5134968478799680e+00 0 0 0
1194 1 5.2045017878675806e+00 1.2932960411050318e+00 3.5996573360787871e+00 0 1 0
814 1 4.6293209121938226e+00 1.8354778665329743e+00 4.3714361208562522e+00 0 1 0
1081 1 4.7189491945960542e+00 2.8431756804815809e+00 3.7118720241838581e+00 0 0 1
860 1 5.5878582408539428e+00 2.3041865400003787e+00 3.8696203072273545e+00 0 1 1
3460 2 7.8140692982511091e+00 1.6956890992739277e+00 3.0546699002719593e+00 -1 0 0
2250 1 7.9160598177621369e+00 1.0304242641677541e+00 3.7395840760697734e+00 0 1 0
2098 1 5.7123599788262656e+00 3.2345176945690128e+00 3.1122156562217096e-01 0 0 1
1573 1 6.3115048638145970e+00 1.4975838054489492e+00 3.6912688505883846e+00 0 0 0
537 1 6.6549496800794889e+00 2.2578763658042251e+00 4.2821654713723820e+00 0 0 0
508 1 5.2731277740864648e+00 4.3110965988419938e+00 3.1129749529410580e+00 0 0 0
964 1 9.2736526439169005e+00 2.6762553772317821e+00 1.8750721438550719e+00 0 0 0
2063 1 9.0668051538308525e+00 2.9087079877779591e+00 2.9414071498111789e+00 0 0 0
124 1 4.3105736732074726e+00 3.5984617022191929e+00 4.2956383694183353e+00 0 0 0
137 1 3.9528102474784388e-01 7.5664480342580931e-01 2.7178076022337816e-01 0 0 1
1505 1 3.4433249735762903e+00 3.9243828868002564e+00 3.8440597788323347e+00 0 0 0
1359 1 6.5165867119059797e+00 7.8111054923815504e-01 2.9827634821781512e-01 0 1 1
1122 1 8.7676628985663250e+00 3.3419588594229527e-01 1.3976369965084706e-01 0 0 0
2108 1 5.8785965282080435e+00 3.0156367337380203e+00 4.6592338353655558e+00 0 0 0
4281 2 9.4420809860423436e+00 8.1871709474481347e-01 8.7058883011633212e-02 0 1 0
3040 1 2.8605527629721568e+00 4.6659194178069390e+00 2.6872894025910921e-01 1 0 0
577 1 2.1726180203422767e+00 2.2006496630390571e-01 1.8751596097194725e+00 0 0 0
733 1 4.0749196252083193e+00 2.9253799643932630e+00 7.1415263260928410e-02 0 1 0
21 1 1.3161652886189226e+00 2.3824259089646729e+00 2.3444238609652623e-02 0 0 0
1402 1 4.6343086524598309e+00 1.0012322477058511e-01 2.8680769723803584e-01 0 1 1
628 1 5.9422499903059052e+00 4.1764055489688410e+00 4.7966123692424851e+00 0 0 0
2012 1 9.3189639972430562e+00 4.8228224416328471e+00 1.9951851106819749e+00 0 0 0
3695 2 1.7601450480528669e+00 1.1073331402193397e-02 1.1838081317581692e+00 0 0 -1
971 1 8.9808134670967572e+00 2.5590167604042779e+00 6.2196173129925800e-03 0 0 0
975 1 8.1019855574600435e+00 1.2197872579849602e+00 4.8174867688245104e+00 0 0 0
2100 1 9.2802394345616612e+00 3.5997456149306850e+00 6.1918372972120030e+00 0 0 0
1626 1 6.0551731614051949e+00 2.2504726236301806e-01 9.0728112263810825e+00 0 0 0
617 1 5.4412866606058401e+00 4.3364185001666158e+00 7.9988494120224249e+00 0 0 0
1171 1 8.2335855380040961e+00 2.3569536516026024e+00 5.6714832374605129e+00 0 0 0
1069 1 2.1807926994779248e+00 1.7671332952318417e+00 5.3426997843293984e+00 0 0 0
1082 1 1.0016378963542685e+01 2.8296191510072424e+00 5.7156816982418244e+00 0 0 0
3584 2 9.8303295951545178e-01 1.3335415619306079e+00 9.5436195012431515e+00 0 0 0
2038 1 1.0267074994344533e+01 3.9537010304804072e+00 6.0724673664346378e+00 0 0 0
4220 2 7.5173190854084968e+00 9.4960089623288835e-01 7.2646549247087977e+00 0 0 -1
3728 2 9.0652618642564811e+00 2.9231405070698449e+00 7.8511935177454433e+00 0 0 0
1628 1 7.6600520239709669e+00 3.9163904852092939e+00 7.9447159736605304e+00 0 0 0
706 1 6.0195596349143998e-01 1.3861613374126787e+00 5.9810287630342085e+00 0 0 0
2165 1 1.0082915258787690e+01 1.9995709633704755e+00 6.3247141386069252e+00 0 0 0
3513 2 1.3971004818534047e+00 1.9201492405628668e+00 5.6391347256824087e+00 0 0 0
842 1 1.3868360493091441e+00 1.0757039494583043e+00 5.3577600675451489e+00 0 1 0
913 1 1.8531028449432561e+00 1.3851664404106965e+00 6.2992772881883496e+00 0 1 0
517 1 4.4709272311602390e+00 4.4441959907271897e+00 9.2141630469559619e+00 0 0 0
1904 1 7.3301469550215952e+00 1.2690102924963804e+00 5.6917893103224282e+00 0 1 0
3611 2 3.2231649686460067e+00 5.6911890794003883e-01 5.5102481265312377e+00 0 0 1
3752 2 2.9902532654579677e+00 1.4541594117865013e+00 5.7383626977566546e+00 0 0 0
526 1 2.3571754479061031e+00 8.0627580131101451e-01 5.7117765833938954e+00 0 0 -1
1080 1 3.1363149078936656e+00 8.6391405086823503e-01 6.3564490449903985e+00 0 0 0
1514 1 5.8081570409939296e+00 2.6363687843536545e+00 9.1072068526819425e+00 0 0 -1
1128 1 3.8082358270212291e+00 1.2298618019720160e+00 5.6918687727016319e+00 0 0 1
1557 1 8.8080002082898474e+00 3.6747100055696542e+00 8.1479760752824255e+00 0 0 0
2053 1 8.1687657972486143e+00 1.5301792510869876e+00 6.3954100870031247e+00 0 0 0
1683 1 4.8477649517590393e+00 7.2565805392716554e-01 6.0582316640829372e+00 0 0 0
1199 1 4.7201660735067952e+00 1.2197076207875706e+00 5.1796370722444127e+00 0 1 0
3749 2 7.5540504839734028e+00 2.9678853990153380e+00 8.1437390241707579e+00 0 0 0
4122 2 5.3425040174500928e+00 6.3392271888703611e-01 5.1868309876238818e+00 0 0 0
1349 1 5.7452144598215575e+00 2.4756931444324612e-01 5.9286043219173195e+00 0 1 0
889 1 6.3537406900836206e+00 6.9664770361394313e-01 5.3070336227342638e+00 0 1 0
1021 1 7.3540529310320881e+00 2.5832079661010456e+00 9.4034913505233835e+00 0 0 0
1654 1 6.4767667178148871e+00 9.4185216358653423e-01 6.3370826894731236e+00 0 0 0
2900 1 9.2284865266441241e+00 3.0351893166692710e-02 6.9833335837828745e+00 0 1 0
3814 2 2.5276179920330727e-01 5.4301450428718723e-01 6.3716963084670173e+00 0 1 0
3718 2 8.7867290133311631e+00 2.9612862372378962e-01 8.8567076844041939e+00 -1 0 -1
2612 1 9.9277867369514166e+00 1.7528234272257872e+00 8.4409613592668418e+00 0 0 0
2106 1 6.8288327370775468e+00 4.4173650740951205e+00 9.5518346850927234e+00 0 0 0
1566 1 5.9413836839856513e+00 3.2975880376277908e+00 8.2546382777214582e+00 0 0 0
2619 1 9.7073278509183805e+00 4.1994086146602152e+00 6.9747579566801630e+00 0 0 0
3518 2 2.9599182599352405e+00 1.3860364248736320e-01 6.8149456748027317e+00 0 1 0
3893 2 9.5990977911174866e+00 4.4564861822399786e+00 6.1735441738604369e+00 0 0 1
3975 2 1.0478401559208898e+01 3.7239231168345017e+00 7.2267993506760009e+00 0 0 -1
3761 2 6.1802911343082467e+00 4.4622099479546362e+00 6.9246844113655595e+00 0 0 0
1099 1 2.8142331407266079e+00 4.6236889609936949e+00 6.5258265343138779e+00 0 0 0
1180 1 1.8943211384470504e+00 2.4096848833558755e+00 6.0915401000938063e+00 0 0 0
1482 1 2.4157903796820350e+00 3.2782009643143319e+00 5.2218840501197947e+00 0 0 0
370 1 1.7199710135529469e+00 6.7315346924391661e-01 8.2698065248611741e+00 0 1 0
675 1 1.8968060629651444e+00 3.4735896697748907e+00 6.1918260777965095e+00 0 0 0
676 1 1.4689454540589606e+00 3.6737307670985557e+00 5.2510242716886957e+00 0 0 0
1114 1 3.1200779761801458e+00 2.2498263601641018e+00 5.3117327700299040e+00 0 0 0
1187 1 3.7379217292521463e+00 2.2485427141223577e+00 6.2595974397622172e+00 0 0 0
659 1 2.9446264339585202e+00 2.9298763005532891e+00 6.1369526360791200e+00 0 0 0
3713 2 3.6931099692454463e+00 2.8561050356458431e+00 5.6953099601563126e+00 0 0 0
698 1 2.7544099609084718e+00 1.9183417333094375e+00 6.3984899490839684e+00 0 0 0
1177 1 4.2052604998455347e+00 2.2810558773660858e+00 5.2458569225705478e+00 0 0 0
1853 1 4.5843815903313496e+00 1.7415853158029915e+00 6.1498033382878905e+00 0 1 1
3123 1 4.7057770585540073e+00 2.7842364615388933e+00 6.0908783134942857e+00 1 0 0
3577 2 5.3897651575104470e+00 2.0882037723167679e+00 6.1494382376941843e+00 0 0 -1
1676 1 5.3397688545049657e+00 2.1698138115075323e+00 5.2508720035940675e+00 0 0 0
1647 1 5.6411606382914874e+00 1.3336048476341820e+00 5.7513383008485581e+00 0 0 0
3707 2 6.1180134412861529e+00 1.0574851674894066e+00 9.2339976116103397e+00 0 0 -1
1438 1 8.3097644298014544e+00 4.2065809290690623e+00 9.0684816372142780e+00 0 0 -1
1153 1 6.2366254391351603e+00 2.0131481493257066e+00 6.4262365131418173e+00 0 0 0
1578 1 1.0375091848599112e+01 4.3724257425289110e+00 7.7994364118768393e+00 0 0 0
998 1 6.9627903412927736e+00 4.1632870500976482e+00 6.6288951588248652e+00 0 0 0
231 1 5.2635526566533848e+00 4.6442613442066412e+00 6.8342991207413819e+00 0 0 0
2610 1 8.8044972595570208e+00 1.9787018013695297e+00 8.2233229335561440e+00 0 0 0
1688 1 8.2288237680893488e+00 3.7881343200514808e+00 5.3113850353539878e+00 0 0 0
1677 1 9.9548555272415999e+00 4.7876734456540122e+00 5.4463667698851737e+00 0 0 0
2123 1 8.2231262830327641e+00 5.7208257283119213e-01 5.7516055874088048e+00 0 0 0
3565 2 7.5108300669384072e+00 3.6579873340719744e+00 4.8602348262334560e+00 0 0 0
730 1 8.7681675117513291e-01 4.5440455526503439e-03 7.7159433311151293e+00 0 1 -1
1115 1 7.4846144117882361e+00 3.2166777452121558e+00 5.9107165513425972e+00 0 0 0
601 1 2.3067071400813433e+00 4.2684879449826667e+00 5.6115419288668464e+00 0 0 0
1093 1 3.3667074815657649e+00 3.8118380114846788e+00 5.7621392638578603e+00 0 0 0
4130 2 7.4593125033291674e+00 4.4548990258411454e+00 7.2574970650309085e+00 0 0 -1
2088 1 4.2864061363659456e+00 3.4469485596092171e+00 5.3953336029364056e+00 0 0 0
127 1 3.9542512740077900e+00 3.3071937711367898e+00 6.4858115469660564e+00 0 0 0
784 1 6.8162994067355616e+00 4.9845944043382329e-01 7.2826481044834113e+00 0 1 0
1085 1 5.4206216910174803e+00 3.4968447983161246e+00 5.4548094325779877e+00 0 0 0
3016 1 4.9815980695054547e+00 3.7651547794348379e+00 6.3487971082898618e+00 1 0 0
1184 1 6.0493406640335152e+00 3.8090218923635208e+00 6.2437641617630746e+00 0 0 0
1030 1 6.1700073765919514e+00 2.8249793307550499e+00 5.7331025982088892e+00 0 0 0
1504 1 6.7674545017740702e+00 3.8633624293416724e+00 5.4387965793034398e+00 0 0 0
2071 1 7.6645097049683910e+00 3.4106286912696491e+00 6.9827485866838224e+00 0 0 0
2115 1 9.2393153860848223e+00 1.2548277684473211e-01 8.0741369418009459e+00 0 0 0
4030 2 8.4425928334334248e+00 3.0869882565134885e+00 6.0628060581035106e+00 0 0 0
1129 1 9.7072961283994754e+00 2.3422212799731392e+00 7.5821147994029365e+00 0 0 0
1086 1 8.3688005419710354e+00 2.9466474409982180e+00 8.7904603418762619e+00 0 0 0
1095 1 7.3806145303522683e+00 1.0851653543414501e+00 8.1476396078610467e+00 0 0 0