LAMMPS data file via write_data, version 12 Dec 2018, timestep = 79200

4320 atoms
2 atom types

0.0000000000000000e+00 1.9309999999999999e+01 xlo xhi
0.0000000000000000e+00 1.9309999999999999e+01 ylo yhi
0.0000000000000000e+00 9.6549999999999994e+00 zlo zhi
1.1585999999999999e+00 0.0000000000000000e+00 0.0000000000000000e+00 xy xz yz

Masses

1 1
2 1

Atoms # atomic

597 1 4.8294957537174354e-01 6.4863532630914522e-01 3.4473450128900990e-01 0 0 0
237 1 3.9112229984159697e-01 1.0660426969222903e+00 1.3800214902295314e+00 0 0 0
1470 1 9.6497860758665261e+00 3.3461052260080368e+00 1.5044389601269863e+00 0 0 0
1218 1 1.3287438014007678e+00 7.0047874765013507e-01 1.0072967662123351e+00 0 1 0
3622 2 2.2611369071668674e+00 7.6058726081390249e-01 6.3977628315508883e-01 0 0 1
1963 1 9.4973969806368856e+00 2.6714978973182846e+00 4.8131184327940018e+00 0 0 0
967 1 1.4216136074364050e+00 1.5890222170833133e+00 4.3085503840648703e-01 0 0 0
3205 1 2.4228320464779136e+00 1.7183077681713386e+00 8.6306404446601959e-01 1 1 0
50 1 5.4567343260792844e+00 4.7640747143766395e+00 1.5144975983909637e+00 0 0 0
851 1 3.1567676065139687e+00 9.4046262677572490e-01 5.9938790513081397e-01 0 1 0
253 1 3.6676412029552026e+00 3.5583605908228710e-01 1.2637980075252422e+00 0 1 0
1190 1 4.0246093093530142e+00 1.3472520400280072e+00 1.0273361480710741e+00 0 0 1
3918 2 3.8404184401925967e+00 1.4724902602121965e+00 1.8178586124521784e-01 0 1 0
30 1 7.0435718654223205e+00 3.9802265981632909e+00 4.0719471319122009e+00 0 0 0
1127 1 4.0731980577090496e+00 5.9239731611059399e-01 1.6785782907389937e-01 0 0 1
1554 1 5.0063771993565442e+00 1.1083685510537975e+00 7.1992012480216705e-01 0 0 1
4116 2 4.6284937952914511e+00 7.2397446459533388e-01 1.5987664688451002e+00 1 0 -1
95 1 5.6188421512104076e+00 5.1756956580095004e-01 1.5603248661269435e+00 0 0 0
2174 1 5.7661927058549542e+00 3.3027305609655450e-01 5.8707715913608316e-01 0 1 0
1458 1 7.6523535442271085e+00 3.2178406422048794e-01 9.7347455222465207e-01 0 0 0
870 1 5.8592311517218310e+00 1.5183236736152150e+00 1.2815171307041808e+00 0 1 1
1798 1 6.6394144107764355e+00 8.9798312594246854e-01 8.6673174731885450e-01 0 1 0
3460 2 9.6353669143027449e+00 2.6981487495101453e+00 3.1201647660623739e+00 -1 0 0
1621 1 8.2826372467200517e+00 4.6694545589207808e+00 3.1703485997235692e+00 0 0 0
1615 1 7.5539093270127946e+00 1.5132384673642962e+00 1.0490499220801939e+00 0 0 1
1042 1 2.6619148835752968e+00 4.5061673618920972e+00 1.0117415766773528e-01 0 0 0
3793 2 8.2810854937416973e+00 3.3519106148371747e-01 3.5990348050132293e-01 0 1 0
767 1 8.6724728601761392e+00 3.9709864690342944e-01 1.2656530740155525e+00 0 1 0
1359 1 8.4832933705127900e+00 1.1515076081805593e+00 4.3494726486254537e-01 0 1 1
3468 2 8.4299488089830810e+00 1.7324506936618567e+00 1.2263154487771304e+00 -1 0 1
465 1 4.8449378038979901e-01 1.8403934469241445e+00 5.8349373309142527e-01 0 1 1
887 1 3.0898732116815193e+00 5.2695934343251566e-02 4.2086448633872999e+00 0 1 0
657 1 3.9605519305856962e-01 3.0024729561900951e+00 5.0511527223121166e-01 0 0 1
708 1 7.6209274698800300e-01 2.6511220264846589e+00 1.3697749820300817e+00 0 0 1
115 1 2.6625453829544381e+00 1.7169276684362780e-01 1.1680491470738030e+00 0 0 0
3478 2 1.1962477611844888e+00 2.4233559134622098e+00 6.0191816884423754e-01 0 0 -1
254 1 1.8163516455162698e+00 2.5656246150229971e+00 1.1536145978316925e+00 0 1 0
2960 1 1.3229008454174471e+00 1.7413439804363138e+00 1.5147579683958661e+00 1 0 0
1160 1 9.2238163912761344e+00 1.2585920521087459e+00 1.5336859333530888e+00 0 0 0
3599 2 2.2563875867162753e+00 3.2710743416933763e+00 7.9749153886068791e-01 0 0 0
622 1 2.8908812010190714e+00 2.7066825358937034e+00 6.5769415730982450e-01 0 0 1
3750 2 3.2201620433878175e+00 1.8110005441482953e+00 8.1068090574142615e-01 0 0 1
34 1 3.9245541916993805e+00 2.3632382298632946e+00 5.3301033850955148e-01 0 0 0
1065 1 3.4393880714723997e+00 2.4131830691959699e+00 1.4971442498726579e+00 0 0 0
968 1 5.0590958862281568e+00 2.3468315452328006e+00 5.6928084191340245e-01 0 0 1
3708 2 4.8030790690609848e+00 1.7773322700258580e+00 1.2451522506175421e+00 0 0 0
1166 1 4.5691369757491707e+00 2.8529641616079067e+00 1.3593537610878603e+00 0 0 1
3768 2 4.8759440095170472e+00 3.2266623964176731e+00 4.2664422523214846e-01 0 1 0
513 1 5.2268660891283591e+00 4.4409665614606038e+00 4.7472222307250798e+00 0 0 0
3757 2 6.6717842922019068e+00 1.7815236505144554e+00 9.9578999143643143e-01 0 0 1
1764 1 6.1270128948303686e+00 2.4503043359234660e+00 7.9758857457736809e-01 0 1 0
1617 1 7.4391270850260005e+00 2.5807578911856210e+00 7.0173697807312274e-01 0 0 1
1455 1 9.6008788173755093e+00 3.8454363479208636e-02 2.7119790691376395e+00 0 0 0
1499 1 8.3856587851667310e+00 2.1854204881006565e+00 4.2170314642869833e-01 0 0 1
57 1 1.7470712667009936e+00 1.4639606866680528e+00 4.6650684222013803e+00 0 0 0
497 1 8.8410847295782558e-01 3.7810181565443335e+00 1.1677475289034533e+00 0 0 0
2064 1 1.9942653446908036e+00 2.4356685945575949e+00 6.4972934318481418e-02 1 0 1
986 1 1.8629892910237895e+00 4.0397140704565091e+00 4.7440295555048886e+00 0 0 0
987 1 6.8375567966722413e+00 1.7531548652952949e+00 1.5101740839326613e-01 0 0 0
1678 1 9.6727500360356302e+00 3.5658810864548243e+00 2.7923778213195165e+00 0 0 1
3085 1 1.4832516296107345e+00 3.2784142364241147e+00 4.2740019502875842e-01 1 0 1
3799 2 1.2652129976457280e+00 4.3499803646790882e+00 6.4208204547991155e-01 0 1 0
171 1 2.0760983339972467e+00 4.1213223236226693e+00 1.0830507512258754e+00 0 0 1
1513 1 7.8153630017343252e+00 4.5725181326849951e+00 7.6333859989390174e-01 0 0 0
952 1 9.2539463159735362e+00 2.2887400046580999e+00 1.2556157032486701e+00 0 0 0
656 1 4.0542156738820685e+00 3.4728779771188627e+00 4.8903388242349211e-01 0 0 1
2996 1 3.8942144378234671e+00 4.3842000713078439e+00 1.1145371084826874e+00 1 0 0
717 1 3.0578439165207780e+00 3.7641719148569446e+00 7.3672063297578627e-01 0 0 1
4177 2 5.9437444541388365e+00 1.5239199047903744e+00 4.7117305800233682e+00 0 1 0
668 1 3.6956983481964940e+00 3.4205716330295486e+00 1.5374621293386563e+00 0 0 0
2201 1 9.4174601554685076e+00 4.2839308130439706e+00 1.0761899947108649e+00 0 1 0
3676 2 9.5616964977665564e+00 1.7260200736649669e+00 2.2992126998744911e+00 0 1 1
1019 1 5.6782474561938372e+00 3.3125039895989197e+00 9.7287190229584564e-01 0 0 0
1198 1 4.8059446421202354e+00 3.9312092555893585e+00 1.1431641027390063e+00 0 1 0
3627 2 5.6143963445459679e+00 4.2325821623600275e+00 7.4399650695414266e-01 0 0 1
1870 1 9.5274289153701197e+00 1.4465891869986671e+00 5.1828476860436501e-01 0 1 1
3503 2 9.1942352038008490e+00 2.3490291256509899e+00 4.0447082468060103e+00 -1 0 2
567 1 6.8625217150013453e+00 3.3384819323231452e+00 1.0722105802199353e+00 0 0 0
669 1 6.2289038560085830e+00 4.1687543788006014e+00 1.3123520732658138e+00 0 0 1
3865 2 6.9716198234555353e+00 4.3415429535812162e+00 7.7037942383572056e-01 0 0 0
1051 1 6.2685865638633027e+00 3.9039074066162285e+00 2.8447719672320754e-01 0 0 0
2098 1 7.3314588538462351e+00 3.7528884090240462e+00 2.1536967810800361e-01 0 0 1
1029 1 7.4314252330154833e+00 9.0428661628730478e-01 1.0615785334648031e-01 0 0 0
3772 2 3.3539181114520997e+00 1.2032892530914799e-01 4.2362373306003814e-01 0 1 1
503 1 8.9590594048328676e+00 3.2138176170575754e+00 7.0775719596923192e-01 0 0 0
1506 1 7.9368500972662019e+00 3.5595243487592954e+00 1.1125531514742721e+00 0 0 0
1564 1 8.6340018075124867e+00 4.0824322140606331e+00 3.4817998775170300e-01 0 0 1
1572 1 8.4651541242517112e+00 4.2962792794565132e+00 1.5080580915125448e+00 0 0 1
1491 1 5.0396141196837343e+00 8.0372170880249477e-03 4.7258548446151796e+00 0 0 -1
180 1 5.7415495394640814e-01 3.9846649832889285e+00 2.1779045216747997e-01 0 0 1
3516 2 1.6353469234231136e-01 8.5586702879766574e-01 2.4621087833578370e+00 0 0 0
3602 2 8.1469289341064695e+00 2.4124224263866134e-01 3.8901802479118897e+00 0 0 0
140 1 1.0853505224329778e+00 7.2903935631756700e-01 2.0874141997731024e+00 0 0 0
135 1 5.9649997121513532e-01 1.5893398267213394e+00 2.4829457673101585e+00 0 0 1
520 1 2.1732176840613562e+00 9.7472086730659568e-01 1.6520599301887218e+00 0 0 0
3167 1 1.0997463799017930e+00 7.7342057770918338e-01 3.0874914500594404e+00 1 0 1
715 1 2.1942171717983148e+00 7.2804219090378808e-01 2.7732137892343665e+00 0 0 0
962 1 3.5100583102291236e+00 4.7953993215242550e+00 2.0322189447493155e+00 0 0 0
1000 1 3.1714191589950635e+00 1.3340535851385826e+00 1.6040324659880161e+00 0 0 0
4214 2 2.6114119606594541e+00 1.3817168707237317e+00 2.3765642476673259e+00 1 0 0
817 1 3.0082389435313557e+00 3.5623000862007043e-01 2.1029121395675885e+00 0 1 0
159 1 3.9070145650428958e+00 9.0163426756740728e-01 2.0972221375433295e+00 0 0 0
992 1 3.2331780749591412e+00 1.1128432473800245e+00 2.9221607058228369e+00 0 0 0
966 1 3.8982686154815336e+00 1.9197555621661103e-01 2.8813953791660105e+00 0 0 0
1134 1 4.2811425732348543e+00 1.3864340438059624e+00 2.9291015365260580e+00 0 0 1
1040 1 5.1664369763523039e+00 1.4385245607952519e+00 2.0082732547178241e+00 0 0 0
1358 1 4.8182700297403596e+00 4.9668388476622344e-01 2.3944781672859428e+00 0 1 1
1783 1 5.7723984715314307e+00 2.4699930404069917e-01 2.7490876810231688e+00 0 1 0
3878 2 5.9347970208964353e+00 1.0598369628391502e+00 2.1474762349714336e+00 0 0 1
631 1 5.2917325406797140e+00 1.2209972007062522e+00 3.0130733331563779e+00 0 0 0
3756 2 7.2778166894144274e+00 8.2229802757076176e-01 1.5336996366861708e+00 0 0 1
1357 1 6.6012116162592962e+00 5.1422925131594932e-01 2.0324527721492851e+00 0 1 1
575 1 6.4054039095676840e+00 1.2238279999244117e+00 2.8889521254882600e+00 0 0 0
722 1 6.7947698727252197e+00 1.4598165546362483e+00 1.8528929194125121e+00 0 1 0
1147 1 7.4110429481380455e+00 8.8040495864009416e-01 2.5988653156432684e+00 0 0 1
1351 1 8.1634053905813975e+00 1.1052121166978022e+00 1.8163303661532457e+00 0 1 0
3775 2 8.2858871194018189e+00 7.8439504911137270e-01 2.9701589812492806e+00 0 1 0
4263 2 7.1301434056165665e+00 4.1915592703006341e+00 2.4304334514496815e+00 1 0 0
1696 1 8.4944054121526555e+00 4.3316536917190298e+00 4.2703233953158461e+00 0 0 0
4278 2 8.8039785704321849e-01 4.6827905578571745e+00 3.8401170808339491e+00 1 1 -1
3495 2 3.4682266746049167e-01 1.8993440640130148e+00 1.4803123950250257e+00 0 0 2
1098 1 9.2938499437685369e+00 2.4391171862099643e+00 1.0539452085319267e-01 0 0 1
4049 2 7.2100318299742827e-01 2.7028229555041885e+00 2.7099528547709477e+00 1 1 1
1785 1 8.5235258287141509e+00 1.7262013535924142e-01 2.2957403156760567e+00 0 1 0
431 1 1.6988910789144418e+00 1.5851362133027520e+00 2.5323777440980408e+00 0 1 1
558 1 2.3813085079764522e+00 2.0998345269024874e+00 1.9123295088173333e+00 0 0 0
2962 1 1.4293732177982141e+00 2.6000566491465649e+00 2.2756765952788220e+00 1 0 0
83 1 2.3706144655373782e+00 3.0513016523482341e+00 2.5363980385585378e+00 0 0 0
166 1 2.5091432758355898e+00 2.0292590559140318e+00 2.9259899226889354e+00 0 0 0
1376 1 3.4421038716813412e+00 2.0692615613322545e+00 2.4686158057513521e+00 0 1 0
3606 2 3.2331230784018476e+00 2.9483343514914915e+00 2.2423761435011138e+00 0 0 0
2941 1 4.2584458226805300e+00 2.9896669419401110e+00 2.3552393147153148e+00 1 0 0
3608 2 4.2080587796892379e+00 2.2472257263918003e+00 2.9121085614271931e+00 0 0 0
3128 1 3.3301822457521584e+00 2.9802490572812799e+00 3.1142802558038261e+00 1 0 0
555 1 4.2990981034077826e+00 1.9717685918650483e+00 1.8939769105850739e+00 0 0 0
505 1 5.4005186765887698e+00 2.4026696060526125e+00 1.6003210668166685e+00 0 0 0
663 1 4.9895938810685827e+00 2.2025331377357560e+00 2.6927519804368911e+00 0 0 0
3686 2 5.0870657688254584e+00 2.9429801982010226e+00 2.2017921355750962e+00 0 1 0
1446 1 5.7864525329994567e+00 2.9226979404197677e+00 2.6008399145976600e+00 0 0 0
568 1 5.9339967182870739e+00 1.9457009557096268e+00 2.3063797947608262e+00 0 0 0
3703 2 6.0250382505321056e+00 2.9774936736455895e+00 1.7320108142774340e+00 0 0 0
3533 2 7.1609633763469862e+00 1.7465915372222476e+00 2.6817571778377083e+00 0 1 0
1462 1 6.7492701325442965e+00 2.4258742735578060e+00 1.6424862219254708e+00 0 0 0
1511 1 6.7817638079002487e+00 2.5960267737178757e+00 2.7174326591884510e+00 0 0 0
1561 1 7.5246657822327849e+00 3.1137699002423931e+00 2.0471109441119006e+00 0 0 0
2197 1 8.0705718181088812e+00 1.5921423002527162e+00 2.8677531212121905e+00 0 1 0
566 1 7.6835799977959702e+00 1.9946407829429984e+00 1.9933553812912865e+00 0 0 0
1437 1 8.2889315983841847e+00 2.6196073590092870e+00 1.4044282202445157e+00 0 0 0
2101 1 8.7184356577105380e+00 1.9767841289238772e+00 2.1448818849970177e+00 0 0 1
3946 2 8.3204229209948029e+00 2.7100071135318942e+00 2.3619062713006902e+00 0 1 0
1721 1 7.7560110310284234e+00 2.6444529176556473e+00 3.0635029686499653e+00 0 1 0
2421 1 8.8089115739757915e+00 3.0422551787526988e+00 2.9821093042055145e+00 0 0 0
3925 2 3.7495662694538484e-01 4.1722735460440195e+00 1.8293903542359216e+00 1 1 -1
162 1 7.7335749737533299e-01 3.5054985006360777e+00 2.2891123979057442e+00 0 0 0
1191 1 5.7223956867490680e+00 4.5728084176617978e+00 3.7269636872422640e+00 0 0 0
1906 1 7.8455008154609578e+00 4.9398317852010359e-01 4.7454667059255646e+00 0 1 0
492 1 9.6594475118209178e-01 4.4322187038995953e+00 2.9596027427150955e+00 0 0 0
2976 1 1.2675609540103758e+00 4.4451958920144872e+00 1.8974522361613042e+00 1 0 0
615 1 2.7098010642395760e+00 3.2105598692398942e+00 1.5789641338427731e+00 0 0 1
3028 1 1.7170870712824311e+00 3.4392739498654765e+00 1.7696219643091791e+00 1 0 0
3610 2 1.6361132584970006e+00 3.9583636396935544e+00 2.5323530401725241e+00 0 0 0
636 1 2.4169163005666054e+00 4.1934243496929478e+00 2.0975374181399302e+00 0 0 1
2965 1 1.5069893501759730e+00 3.3306579312236813e+00 3.1014876741772519e+00 1 0 0
2084 1 9.7398069514539838e+00 4.3890200212806523e+00 1.1044207282268513e-01 0 0 1
1039 1 4.4211212212365867e+00 4.0747745478349158e+00 2.1689987585346882e+00 0 0 0
4238 2 3.0627200567021062e+00 4.0281923393562122e+00 1.5440142015114180e+00 1 0 0
3619 2 4.0593874661655764e+00 3.5858768477683367e+00 2.9659784127206277e+00 0 0 1
586 1 3.3675773139601359e+00 3.7659011338844257e+00 2.4433725584274630e+00 0 0 0
1022 1 3.8729168529542681e+00 4.4380086090691737e+00 3.0300998710185136e+00 0 0 -1
1682 1 7.9767567378442816e+00 3.6387451257238217e+00 3.5858628014941267e+00 0 0 0
1440 1 4.9847856216882658e+00 3.4950803342331898e+00 2.9278446431429099e+00 0 0 0
664 1 5.4635769927492888e+00 3.7565909233977890e+00 2.0033363352909435e+00 0 0 0
550 1 5.3372456359031126e+00 4.5880548575782418e+00 2.6846023303476789e+00 0 0 0
655 1 6.3621090378512415e+00 4.6673822704768400e+00 2.1769630054703102e+00 0 0 1
994 1 6.0357070224155729e+00 3.8688719498210657e+00 3.0216638817011616e+00 0 0 0
1428 1 7.2823310451535965e+00 4.2243407531140704e+00 1.5672060886405170e+00 0 0 0
508 1 6.7153846632051319e+00 4.6195761840817102e+00 3.1605799395042022e+00 0 0 0
534 1 7.0889414099267629e+00 3.5660491730937749e+00 3.0332827631553347e+00 0 0 0
1271 1 6.5615851988922342e+00 3.5517939402595839e+00 2.1674177059591848e+00 0 1 0
1001 1 8.1622771522586159e+00 3.1718148083688020e+00 3.2258684713403735e-02 0 0 0
3838 2 7.5038027950042272e+00 4.2626714877584764e+00 3.2176279292452326e+00 0 0 0
2731 1 2.5578453114752964e-01 1.1814031090987712e-01 2.9515791058928187e+00 1 1 0
1072 1 8.7311179975888784e+00 3.4260746981685255e+00 1.9637825261445077e+00 0 0 0
1535 1 7.9530280001269178e+00 3.9833300767889126e+00 2.4577263660691004e+00 0 0 0
3964 2 9.3181388312258751e+00 4.0359673528701823e+00 2.0613844915949517e+00 0 1 0
1858 1 9.1150168904491125e+00 1.5904823512255004e+00 4.4876039484835184e+00 0 1 0
970 1 6.3646292327584693e+00 4.5136245877514360e+00 4.6890604312067197e+00 0 0 0
4110 2 3.6988102345186125e-01 2.8838826415170465e-01 3.8921348182256255e+00 1 0 0
1402 1 6.7960170260200785e+00 6.7854480437771258e-02 1.9700989653271078e-01 0 1 1
689 1 1.0071400222038898e+00 9.2201556032310272e-01 4.1519186105303474e+00 0 0 0
4299 2 9.5233557062115393e-01 1.5996452862392612e+00 3.4353971955934481e+00 1 1 1
386 1 6.2557725652867573e+00 2.5850269463872055e-01 3.8699184878348847e+00 0 1 0
208 1 9.9050927825595958e-01 4.5211366508221946e+00 4.7393848529284552e+00 0 0 0
194 1 1.9526549913163262e+00 4.9198506955394894e-01 4.5138006424122148e+00 0 0 0
3855 2 1.7381235320187605e+00 4.8749931769213778e-01 3.5954332001901292e+00 0 0 0
3192 1 1.7803536264365225e+00 1.3739564009372200e+00 3.5882548885754768e+00 1 0 0
4042 2 4.3478291099286173e+00 6.1986620055815889e-01 4.6886651059143514e+00 0 1 0
1880 1 9.2497678726522032e+00 4.5680938589445130e+00 2.7189654294011278e+00 0 0 0
1584 1 2.6950594619673027e+00 9.2338289502045168e-01 3.8109793331589645e+00 0 0 0
3464 2 3.4928855096076092e+00 5.4023592084366345e-01 3.6064665046696445e+00 0 0 -1
652 1 3.7189283995336386e+00 1.2049035366132841e+00 4.1626823761049812e+00 0 0 0
599 1 4.1418908560737631e+00 1.8533408079975863e-01 3.9548178754358805e+00 0 0 0
991 1 9.0159820675754414e+00 1.0524882869556667e+00 2.5380505802894371e+00 0 0 0
4264 2 4.6511078251517688e+00 6.6695560672041199e-01 3.2583799341557880e+00 1 0 1
1054 1 5.2467972223188442e+00 3.6313428251475227e-01 3.8018841272952639e+00 0 0 0
481 1 4.7004227757614565e+00 1.3220463244029206e+00 3.8534041207933476e+00 0 0 0
235 1 5.8276423910504604e+00 1.1915970864940610e+00 3.8903503776630171e+00 0 0 0
3764 2 9.3779228581499936e+00 4.9329617902859163e-01 2.0029554174356310e+00 0 1 -1
3856 2 6.9662049291636210e+00 7.7689899450939870e-01 3.3885356623268734e+00 0 0 0
2360 1 6.9073377529432243e+00 9.7895803429927031e-01 4.2931394766023470e+00 0 1 0
4041 2 9.5916338333251066e+00 4.7821995193175326e-01 3.4106068129076541e+00 0 1 0
3040 1 4.2621422083610252e+00 4.4434167332018779e+00 1.5550946879105590e-01 1 0 0
1950 1 8.9200560444333128e+00 1.0692848806189605e+00 3.5626580365208653e+00 0 0 0
4029 2 8.3610594803000300e+00 1.1416015906428816e+00 4.3005906761380510e+00 0 1 0
580 1 7.8217025281837538e+00 1.0141492339451430e+00 3.7080819336468824e+00 0 0 0
878 1 8.8364747628642064e+00 3.9212630082972394e-01 4.3338434272218418e+00 0 1 0
263 1 1.8781370115185221e+00 4.8238525870521940e+00 2.7291004783287121e+00 0 1 -1
1425 1 9.5334991728603331e+00 3.1544931052376497e+00 3.7900430127390394e+00 0 1 0
905 1 4.2546744352780203e-01 2.3332706781967443e+00 3.3803459884119693e+00 0 1 0
1242 1 5.7768810916361009e+00 1.5472093427061986e+00 1.8237365338227002e-01 0 1 0
906 1 9.4988728985023627e+00 2.6667551195620063e+00 2.2862371918975910e+00 0 1 0
2545 1 4.8076589911270035e-01 2.8729520408618447e+00 4.4251740554025920e+00 1 0 0
3490 2 1.0221479378746863e+00 2.8490191420953255e+00 3.7480278801392535e+00 0 0 0
2562 1 1.0455508616220772e+00 2.0446040204484253e+00 4.1402671593785731e+00 1 0 -1
3080 1 1.5641916954461328e+00 2.3470402108058397e+00 3.3228846458051757e+00 1 0 0
3480 2 1.8802380848779330e+00 2.0879614967124112e+00 4.0659200061254612e+00 0 0 0
700 1 1.6859404824128692e+00 2.8499192247744389e+00 4.3904237733742146e+00 0 0 0
288 1 2.3967897402845395e+00 2.8357458062604683e+00 3.6157976229107991e+00 0 1 0
4208 2 2.4963820883941530e+00 3.0002572707173014e+00 4.6575098846425451e+00 1 0 0
543 1 2.6952582982552973e+00 1.9557350953564603e+00 4.0514094371313236e+00 0 0 0
1165 1 3.6419918097493649e+00 1.9892651790315792e+00 3.5537071325193921e+00 0 0 0
802 1 3.4493495134230723e+00 2.9538854460378459e+00 4.2048389036513854e+00 0 1 0
572 1 4.3230466703021913e+00 2.8921015660360725e+00 3.4189912538786200e+00 0 0 0
1167 1 4.3048582773870478e+00 2.2433538997527354e+00 4.3151220737023603e+00 0 0 0
242 1 4.6050423790761359e+00 4.1346751455421160e-02 9.2669472548238963e-01 0 0 1
3719 2 4.3487040403449662e+00 3.1575353723379416e+00 4.2707761736374046e+00 0 0 -1
4119 2 4.8230231963781289e+00 2.1725055830659277e+00 3.5600931229162645e+00 0 0 0
1007 1 5.3328551158340076e+00 2.0301764376582745e+00 4.2345314381684034e+00 0 0 0
2164 1 5.3817646018537078e+00 2.8762323778628400e+00 3.6105623046281474e+00 0 0 1
3884 2 5.9749545061543214e+00 2.7594677693151524e+00 4.3464070238940540e+00 0 0 1
1062 1 6.0063235773843173e+00 2.0958697320376110e+00 3.3090404953956587e+00 0 0 0
1194 1 7.1092073317861182e+00 1.7548820920519033e+00 3.5253253306563557e+00 0 1 0
814 1 6.4737907765793912e+00 2.0673546702055159e+00 4.2895344885862166e+00 0 1 0
1081 1 6.5660814765670148e+00 2.9515806478451982e+00 3.6597940505302984e+00 0 0 1
860 1 7.4892901416016127e+00 2.7147242968845080e+00 4.0539871312303344e+00 0 1 1
3587 2 8.4269285663676854e+00 4.7352002936346702e+00 2.2907957992077401e+00 0 0 0
691 1 4.6897467427297750e+00 4.6209541826764324e+00 3.7197784556823503e+00 0 0 0
1071 1 7.6016788305750929e+00 1.7028220115903132e+00 4.5283746382711954e+00 0 0 -1
1573 1 8.2930054551166172e+00 2.0511347185979862e+00 3.7607735977097865e+00 0 0 0
537 1 8.6077944829867299e+00 3.0004690771610356e+00 4.1506409302010754e+00 0 0 0
536 1 3.9913655482170185e-01 3.3671038364186567e+00 3.2635687746785909e+00 0 0 0
1117 1 5.1888092470129585e+00 3.9489398257497643e+00 4.7043880398889071e-02 0 0 1
114 1 1.0786807116571580e+00 3.6685891064744496e+00 4.0725616328975134e+00 0 0 0
124 1 5.9686259607701855e+00 3.6889929674447339e+00 4.2259083836222935e+00 0 0 0
177 1 2.3693992940684385e+00 3.9457496719935912e+00 3.1347243571014691e+00 0 0 0
4240 2 3.4045512770534434e+00 4.6858410547632001e+00 4.9343340869826119e-01 1 0 0
232 1 2.6747807116460045e+00 3.7057816759926441e+00 4.2170240805518562e+00 0 0 0
779 1 1.7095793663986418e+00 4.4630749033535864e+00 3.7209851414065365e+00 0 0 0
4148 2 1.9219154409937373e+00 3.5207281081780324e+00 3.8551758434504975e+00 1 0 0
1625 1 3.8311617375066671e+00 4.6603050596682554e+00 4.5692151789791229e+00 0 0 0
3688 2 3.4420231520197238e+00 3.8448157881241136e+00 4.5054709680404725e+00 0 1 0
3127 1 3.9094465659780497e+00 3.7675486981722797e+00 3.7943492139297730e+00 1 0 0
2076 1 9.2509598157547313e+00 1.9588346061772735e+00 3.0724624266324514e+00 0 0 1
1622 1 8.9727732499473785e+00 3.9540377572201715e+00 3.4795940768489051e+00 0 0 0
2108 1 7.8532567413826184e+00 3.5809306405714669e+00 4.6904622901211956e+00 0 0 0
559 1 3.0944739068810394e+00 4.5278398473191608e+00 3.8514110222951388e+00 0 0 0
3588 2 3.1890712366238270e+00 3.8332354220480558e+00 3.3869155920741081e+00 0 0 0
1505 1 5.0264024539994070e+00 3.6982251570214433e+00 3.9934979039844865e+00 0 0 0
548 1 6.7549243221191606e+00 3.1517406720485703e+00 4.6972741702205925e+00 0 0 0
3121 1 9.7350023569692485e+00 3.9200711319260315e+00 4.4452735377056740e+00 0 0 0
4250 2 2.3978213835205766e+00 4.6555059489562716e+00 4.3292993183566670e+00 1 0 1
1913 1 5.1081995135276097e+00 1.0453697048056143e+00 4.7778446942238233e+00 0 1 0
1526 1 5.1369339517165891e+00 3.0581970050586764e+00 4.7418644150261224e+00 0 0 0
3631 2 4.6761498037293441e+00 4.7420397921364339e+00 8.5420241988792189e-01 0 0 1
976 1 7.2977616821482867e+00 1.2305276373446863e-01 3.9331670820784734e+00 0 0 0
412 1 1.0926903346266559e-01 1.0929330646846416e+00 3.3278428895451455e+00 0 1 0
1018 1 2.8222483645038197e+00 4.7828705132617184e+00 1.1737987015502036e+00 0 0 0
2946 1 9.6546695131624460e+00 4.6134833501692724e-01 9.8236590453114858e-01 0 0 0
1651 1 8.7971268091795896e+00 1.0119161844675896e-01 3.3105914729838912e+00 0 0 1
1484 1 7.4827410271955035e+00 2.4769862818553146e-02 1.9857808062478945e+00 0 0 0
1073 1 7.8080914069546630e+00 5.9554152747725540e-02 3.0638108545404439e+00 0 0 0
1818 1 6.7764564153330511e+00 4.5060457183694537e-02 2.9777037194095146e+00 0 1 1
1488 1 7.0678946045429045e+00 4.8049895645082623e+00 4.8192423293878600e-02 0 0 0
2494 1 2.7657631058421099e+00 1.2274443094591072e+00 4.7858793972143809e+00 1 0 -1
840 1 5.7214428278498941e-01 4.8037950849907398e+00 1.2196702595421158e+00 0 1 1
574 1 4.3830182069376677e+00 3.8657934105517322e+00 4.8190019618030702e+00 0 0 0
10 1 1.5143050125317365e+00 5.8237160342947414e-01 3.4955304290020160e-02 0 0 1
1090 1 6.0149458122864399e+00 5.3842552637386265e-01 4.8177829609685876e+00 0 0 0
1634 1 9.6970882213053127e+00 3.7459339019672986e+00 7.6762656861189633e+00 0 0 0
868 1 7.0881651123502831e-01 8.8064447340886065e-01 6.1884110961420555e+00 0 1 0
1396 1 9.3067228280802112e+00 2.0413044423040050e-01 7.2524491185575162e+00 0 1 0
3598 2 6.7262146449941520e+00 2.0679443999442396e-01 6.5282829335595425e+00 0 0 0
133 1 1.1285445678955097e+00 8.8955405674333174e-02 7.9713529081095666e+00 0 0 0
2986 1 1.2412905518680490e+00 5.8174550400662584e-01 5.2938947904411755e+00 1 0 0
3545 2 2.1240678573068363e+00 9.7375219334870600e-01 5.3523999144080747e+00 0 1 0
199 1 1.7152369337962472e+00 6.7314657379821108e-01 6.1963112225930272e+00 0 0 0
617 1 6.8893919176530884e+00 4.7277908221498741e+00 7.9550664258110526e+00 0 0 0
3722 2 3.7156419721538665e+00 2.2795035274067119e-01 5.7687887772036559e+00 0 1 -1
370 1 3.9379461710459869e+00 1.1502810101858177e-01 8.0681029139996880e+00 0 1 0
706 1 2.8998736007911039e+00 6.7081790860321322e-01 5.8786630134601925e+00 0 0 0
1688 1 9.7833689096915677e+00 4.6914635669206435e+00 5.1965539971725550e+00 0 0 0
3513 2 3.4074553546716575e+00 1.4848869021948135e+00 5.3962690549934083e+00 0 0 0
842 1 3.5557740680987941e+00 6.4128511785078324e-01 5.0119649629284373e+00 0 1 0
913 1 3.9243481856811018e+00 1.1023537041615010e+00 6.0698991507017057e+00 0 1 0
1069 1 4.2218530794591729e+00 1.5387711792403951e+00 5.0506314597037729e+00 0 0 0
1904 1 9.3824302951943768e+00 2.0369113382544666e+00 5.6440002467364296e+00 0 1 0
3611 2 5.4188244629212017e+00 4.7230890916598373e-01 5.4483744110833703e+00 0 0 1
3752 2 4.6768923259155111e+00 1.3973711654301850e+00 5.7253652856746227e+00 0 0 0
526 1 4.5438204079095454e+00 5.2186856312553631e-01 5.4921451803240675e+00 0 0 -1
1080 1 5.2667050007300933e+00 8.5170838106441971e-01 6.2416249412835390e+00 0 0 0
1514 1 7.3762663081924762e+00 3.2224309613082842e+00 8.8284045580306287e+00 0 0 -1
1128 1 5.7162073795568524e+00 1.3730844856123638e+00 5.5262780366796331e+00 0 0 1
724 1 7.0046086051736678e+00 4.0633263564002320e-01 5.3262084326611498e+00 0 1 0
1498 1 6.1093347279024295e+00 3.3144533915976410e-01 5.8946302814472320e+00 0 0 0
1683 1 6.9328985338811266e+00 9.9248854662039676e-01 6.1499233653696992e+00 0 0 0
1199 1 6.7380439779840513e+00 1.5223569324797315e+00 5.2797808024298218e+00 0 1 0
3749 2 9.0733625589500715e+00 3.9046307237697411e+00 8.3148271918422356e+00 0 0 0
4122 2 7.5155554241974407e+00 1.1266608169712327e+00 5.2394437890212489e+00 0 0 0
1349 1 7.9181387248263482e+00 6.7716225422757281e-01 5.8432937732632082e+00 0 1 0
889 1 8.4241387242213399e+00 1.3372748228820974e+00 5.2182924746827748e+00 0 1 0
2044 1 8.7064968966093694e+00 2.9076380133387553e-01 5.3009890981986709e+00 0 0 0
1654 1 8.6738058083602336e+00 1.5306640926984860e+00 6.1783991615745597e+00 0 0 0
1907 1 8.9123723102822066e+00 4.4795665822451092e-01 6.2977288250722703e+00 0 1 0
282 1 3.8745391317176742e-01 2.0036815990873169e+00 5.9161778242718723e+00 0 1 -1
610 1 3.3326686985034204e+00 2.2433170232340158e+00 4.9491403815206407e+00 0 0 0
134 1 1.2072792502583871e+00 2.9792174013569146e+00 6.1204630788348116e+00 0 0 0
1021 1 9.0971955225464001e+00 3.3792883905398603e+00 9.3380334812499193e+00 0 0 0
1566 1 7.5905774754435491e+00 4.0118629938770241e+00 8.2048373982407234e+00 0 0 0
110 1 1.5607755694967271e+00 1.5478747716881105e+00 5.7146256552670573e+00 0 0 -1
26 1 1.1551827757265225e+00 2.4318180615252443e+00 5.2037211923214342e+00 0 0 0
695 1 2.7226108579724682e+00 1.6965766439754255e+00 5.8120761656687545e+00 0 0 0
602 1 2.2923039821989342e+00 2.2322430168357839e+00 5.0345063852944838e+00 0 0 0
2586 1 2.0420107844606683e+00 2.4930780901149800e+00 6.1696020230324784e+00 1 0 0
4302 2 2.8405993131948351e+00 2.6196423751732039e+00 5.6308740436634226e+00 1 1 0
1180 1 3.8312663335988573e+00 2.1192672485479589e+00 5.8601255693162893e+00 0 0 0
1482 1 4.1706718843018074e+00 2.8799658199720968e+00 5.1173966947759331e+00 0 0 0
891 1 3.4195031429898837e+00 7.9954624093062157e-02 6.6061983364451260e+00 0 1 0
675 1 3.7450642607916604e+00 3.2253004218211996e+00 6.0232441077248513e+00 0 0 0
676 1 3.1390337905619861e+00 3.3184450282998021e+00 5.1196698585772316e+00 0 0 0
1114 1 4.9870879152136913e+00 2.1885799411708273e+00 5.2609528824807130e+00 0 0 0
1187 1 5.6246343033989428e+00 2.1845169650082896e+00 6.1515327649493399e+00 0 0 0
659 1 4.7185358945387517e+00 2.8397090335554891e+00 6.0690170917485853e+00 0 0 0
3713 2 5.3979946877391018e+00 2.8763259944571464e+00 5.6007030739759118e+00 0 0 0
698 1 4.6619344988308988e+00 1.9147210718427183e+00 6.4364665415894207e+00 0 0 0
1177 1 6.1294982564711527e+00 2.4520512224673312e+00 5.2498446247869399e+00 0 0 0
1853 1 6.7376102151636772e+00 2.0448969012789777e+00 6.1312986337030821e+00 0 1 1
3123 1 6.6410076037979753e+00 3.0414505209813258e+00 6.0088401333306338e+00 1 0 0
3577 2 7.4033799660640511e+00 2.5570261760616941e+00 6.0668880108496470e+00 0 0 -1
1676 1 7.3278240147836708e+00 2.5305236454886395e+00 5.1753501448324739e+00 0 0 0
1647 1 7.6833620727551164e+00 1.7723850648320818e+00 5.7998298037232567e+00 0 0 0
1049 1 8.4022929370537316e+00 2.4197418233937835e+00 5.0740847366020425e+00 0 0 0
3811 2 2.7425740424188296e+00 3.0518292716847167e-01 5.0277316987208645e+00 0 1 0
1153 1 8.1582430754810495e+00 2.6296299382680082e+00 6.4097943171917384e+00 0 0 0
3714 2 3.8333622661035782e-01 3.3858009969311449e+00 6.2049477866358247e+00 0 0 0
2590 1 6.4940427704128734e-01 4.1607880072163033e+00 5.8414885795614504e+00 1 0 0
2453 1 1.0557291222044216e+00 3.5291154744089419e+00 5.1842877712645006e+00 1 0 0
501 1 8.9153489642904060e-01 2.4107224879264275e+00 9.4552079369297406e+00 0 0 -1
625 1 2.2799171210780753e+00 1.2148826471817280e+00 9.6038410898724607e+00 0 0 0
1079 1 2.0176658906064215e+00 3.2063377571338840e+00 5.3153618329944559e+00 0 0 0
223 1 1.7799044843586167e+00 3.9998196728618662e+00 5.8474562418866203e+00 0 0 0
1133 1 2.6487902363674860e+00 3.3686881842613103e+00 6.0994398414459070e+00 0 0 0
153 1 2.8803591190430868e+00 4.3589088984217765e+00 5.0476712033202196e+00 0 0 1