LAMMPS data file via write_data, version 12 Dec 2018, timestep = 459360

4320 atoms
2 atom types

0.0000000000000000e+00 1.9309999999999999e+01 xlo xhi
0.0000000000000000e+00 1.9309999999999999e+01 ylo yhi
0.0000000000000000e+00 9.6549999999999994e+00 zlo zhi
6.7198799999999981e+00 0.0000000000000000e+00 0.0000000000000000e+00 xy xz yz

Masses

1 1
2 1

Atoms # atomic

4263 2 5.2987827989278911e+00 4.3253605522244500e+00 2.2594426438903690e+00 1 0 0
1493 1 9.9076059920541137e+00 8.0315650790819493e-01 4.1746961829405755e+00 0 0 0
1433 1 8.7012694905992749e+00 4.0170958375669361e+00 1.5199409387817822e+00 0 0 0
2159 1 9.1480938320523499e+00 2.9261534262961266e+00 4.1235348208842515e+00 0 0 0
1684 1 1.0067563386296722e+01 2.8768203221878825e+00 2.5073601740302882e+00 0 0 0
1502 1 7.7170987366336217e+00 4.2664821413766303e+00 1.9362883037066858e+00 0 0 0
1103 1 7.4018361267533885e+00 1.8669010866356223e-01 4.3410161345961900e+00 0 0 0
4133 2 9.5862971308049012e+00 4.4589217686812352e+00 4.7005721484776739e+00 0 0 0
1979 1 8.5084962557995194e+00 1.8268598834151171e+00 2.5191494081967658e+00 0 0 0
851 1 1.1588148484387801e+00 1.4860781626315129e+00 6.4282510356491773e-01 0 1 0
253 1 1.6067803232375018e+00 6.5674387700468484e-01 1.2386580145792931e+00 0 1 0
1190 1 2.1303337724844282e+00 1.6607194918847348e+00 1.2271647946959321e+00 0 0 1
3918 2 1.8963801686328039e+00 1.7738109449749209e+00 4.2340128277915834e-01 0 1 0
30 1 5.3210643284540833e+00 3.6263826487655839e+00 3.9701213102642239e+00 0 0 0
1127 1 2.0674608665581085e+00 8.5641357465772472e-01 2.7993608507585710e-01 0 0 1
1554 1 3.0215603162987721e+00 1.1802804763314829e+00 9.0512226378589455e-01 0 0 1
4116 2 2.5031997430563906e+00 8.8373701520595782e-01 1.5903344733912688e+00 1 0 -1
95 1 3.3755202792485868e+00 6.2183897356984963e-01 1.6911482875802986e+00 0 0 0
50 1 3.8302887630394933e+00 4.7459525693635429e+00 1.6863321318927476e+00 0 0 0
2275 1 9.9165721757946770e+00 3.2071339582169904e+00 1.4714116813719185e+00 0 1 0
870 1 3.8852218582433364e+00 1.5424993522397286e+00 1.3931233151034217e+00 0 1 1
1798 1 4.5727687202003233e+00 7.1242453342273515e-01 1.0043646012054952e+00 0 1 0
3793 2 5.9298006168386364e+00 2.1178672177805238e-01 3.4256756061466032e-01 0 1 0
1711 1 8.0715215997859797e+00 2.3431075534307833e+00 6.0881418544227750e-01 0 1 0
1615 1 5.7250393614917412e+00 1.0364438220911365e+00 1.0100480750164027e+00 0 0 1
1678 1 8.0042785320317904e+00 2.6047175238880032e+00 2.9818830277462172e+00 0 0 1
987 1 4.6970915105027000e+00 1.5318754815894353e+00 3.6083029036687991e-01 0 0 0
2462 1 1.0801180510678806e+01 4.7840818472388822e+00 1.5513479685079994e+00 0 0 0
1485 1 9.1855385581840299e+00 3.6947214762512759e-01 2.6179313068403052e+00 0 0 0
3468 2 6.7481030407572984e+00 9.9599795357035570e-01 1.0388766842790274e+00 -1 0 1
622 1 1.1524750067904279e+00 3.2583699983371934e+00 6.9002886242178585e-01 0 0 1
1470 1 8.1876029294242745e+00 2.4447185921890000e+00 1.7064339228188303e+00 0 0 0
1122 1 8.6284462327920171e+00 3.2117480232240653e-01 1.8764309622190195e-01 0 0 0
2131 1 1.0827131881249834e+01 4.5464753366491673e+00 3.3871223489279680e+00 0 0 0
115 1 5.0184109643546781e-01 8.7457493359212779e-01 1.2237454416041389e+00 0 0 0
2081 1 9.5741464103423670e+00 1.9264363173075219e+00 4.1786545092067549e+00 0 0 0
2460 1 1.0035043017432422e+01 3.6209428280336331e+00 3.9250864353628021e+00 0 0 0
3590 2 5.1882859374793879e+00 4.4920684731207707e+00 4.2416657652729697e+00 0 0 -1
1160 1 7.3128029036213471e+00 4.7599877424805248e-01 1.5119657990593394e+00 0 0 0
1505 1 3.3275859509850223e+00 3.8920423020231212e+00 3.8113001520937031e+00 0 0 0
744 1 4.7540046468674397e+00 4.7197805049078649e+00 7.4715584296819482e-01 0 1 0
3750 2 1.3805873326308116e+00 2.3170116706214174e+00 8.4682573434004182e-01 0 0 1
34 1 2.2263210167689564e+00 2.6051362031218006e+00 6.0169786346352339e-01 0 0 0
1065 1 1.6352839289590269e+00 2.8699283637196791e+00 1.4844754278079768e+00 0 0 0
968 1 3.2779581423176269e+00 2.4002909055882502e+00 6.8795575053155711e-01 0 0 1
3708 2 2.8588207259054310e+00 2.2545200398181597e+00 1.3980789894953929e+00 0 0 0
1166 1 2.8959051199981634e+00 3.1827503966666399e+00 1.5284825874678281e+00 0 0 1
3768 2 3.3144212081731270e+00 3.3154049483436325e+00 5.6535415089543406e-01 0 1 0
3676 2 7.5185557290682770e+00 9.5101584865160649e-01 2.2098382055004619e+00 0 1 1
3757 2 4.7641437340511477e+00 1.5215816419415522e+00 1.2654602277256939e+00 0 0 1
1764 1 4.3073094149045836e+00 2.2904023350503389e+00 8.7943320972905425e-01 0 1 0
1617 1 5.3618077927341599e+00 2.0312064546752153e+00 1.0194987222765222e+00 0 0 1
2174 1 3.6078800478739637e+00 2.7152263062081289e-01 6.5284779893622435e-01 0 1 0
1499 1 6.3773002929951259e+00 1.8758513849963521e+00 9.7011360783760037e-01 0 0 1
1544 1 8.1865298842512946e+00 1.2814452032866213e+00 5.7737842476928924e-01 0 0 0
1946 1 9.3516473545812246e+00 3.7557890412109791e+00 2.3196407619562613e+00 0 0 0
1965 1 8.2277965582327894e+00 1.2369041293355620e+00 1.7692360731203194e+00 0 0 0
1145 1 7.7841620561566236e+00 3.9976425560261921e+00 4.1908730663581215e+00 0 0 0
3798 2 9.4474391926254988e+00 3.1082392639119488e-01 3.4975606705654498e+00 0 1 0
4242 2 8.8063709943843236e+00 3.9248900638608186e-01 1.8343487737584621e+00 0 0 1
2048 1 1.0458013073937982e+01 4.0322909536287366e+00 2.3882544124050784e+00 0 0 0
3121 1 8.1709616415974615e+00 3.1258668362805699e+00 4.6040170792207702e+00 0 0 0
3775 2 5.9623365294260680e+00 2.2705624772225950e-02 2.7555562637279594e+00 0 1 0
1513 1 6.3065982585911247e+00 4.1385411360716864e+00 8.7081680944327000e-01 0 0 0
952 1 7.4342685110927551e+00 1.5134098845002621e+00 1.1880449075030552e+00 0 0 0
656 1 2.5051915870343380e+00 3.6957009793042293e+00 5.8465584500056311e-01 0 0 1
1689 1 8.5522201581708224e+00 2.1083985535767749e+00 4.7205194201463492e+00 0 0 0
1571 1 7.2061736006882668e+00 4.7822519417681608e+00 2.7195814647755201e+00 0 0 0
1527 1 9.9133739687448319e+00 3.1253023385781709e+00 2.1834619057528765e-01 0 0 0
668 1 2.0903463507946247e+00 3.7552480189877566e+00 1.5115867393152436e+00 0 0 0
2201 1 7.7743401879028999e+00 3.3966016715521046e+00 1.2969183184553308e+00 0 1 0
1472 1 8.3819415773259838e+00 3.3127013256926232e+00 2.1984750028826459e+00 0 0 0
1019 1 3.9951181614939140e+00 3.2807779218848987e+00 1.0600436341999351e+00 0 0 0
1198 1 3.2773396083433757e+00 4.0942062263323376e+00 1.1466509701969236e+00 0 1 0
3627 2 4.1105885923897265e+00 4.2202537432805300e+00 1.0119353680738625e+00 0 0 1
1870 1 7.4178538256906279e+00 5.5529214835421425e-01 4.6977570138299951e-01 0 1 1
3503 2 7.1006858860150093e+00 1.5022512783490931e+00 3.8392474005267920e+00 -1 0 2
567 1 5.0205680660258132e+00 3.1096109212536613e+00 1.1881308682021419e+00 0 0 0
669 1 4.7475260571922018e+00 4.1004176349558170e+00 1.5743375415114547e+00 0 0 1
3865 2 5.3322843952273598e+00 4.0126657685213756e+00 8.8992865896470219e-01 0 0 0
1051 1 4.6690459404759963e+00 3.7019077801785376e+00 3.6888129054104496e-01 0 0 0
1783 1 3.6093244866291139e+00 2.4844402485646774e-01 3.1635807366788562e+00 0 1 0
3588 2 1.6023051131987140e+00 4.0097984553296886e+00 3.6878806403065649e+00 0 0 0
3771 2 8.2839414804381768e+00 2.7133839733194414e+00 3.8440972829782645e+00 0 1 -1
503 1 7.1897834018101845e+00 2.5978554302354251e+00 1.1471356427699859e+00 0 0 0
1506 1 6.1016545038163166e+00 2.8789510892368648e+00 1.2547470207043747e+00 0 0 0
1564 1 7.1701495029489948e+00 3.4746201620220720e+00 4.2082722340459333e-01 0 0 1
1572 1 6.8572505365276841e+00 3.6963613669188295e+00 1.6540294631680523e+00 0 0 1
1671 1 8.9267121138217593e+00 3.0370122663006716e+00 1.0109468008419356e+00 0 0 1
1526 1 3.4017341300937352e+00 3.0390087578314455e+00 4.6871309760770012e+00 0 0 0
2006 1 9.4981722959122639e+00 3.9686703651176947e+00 7.0242933056124135e-01 0 0 0
94 1 7.6292636422995885e-01 6.4990183480510999e-01 3.3309531355612298e+00 0 0 0
2145 1 8.6776238765186910e+00 1.9612265826763213e+00 3.6134958828442456e+00 0 0 0
2468 1 8.9001997341295507e+00 1.8380269615665239e+00 1.1752534304764308e+00 0 0 0
4281 2 9.4298210030156184e+00 7.1038309857191428e-01 1.7849979334356059e-01 0 1 0
1441 1 9.1983686386084411e+00 1.5588388575131842e+00 2.2416971278658451e-01 0 0 0
2649 1 9.9992864011449090e+00 2.5937081789799614e+00 3.4712978449457510e+00 0 0 0
2108 1 5.9810789990762174e+00 2.9834220785790593e+00 4.7082333459221779e+00 0 0 0
1000 1 1.2038875360897809e+00 1.8394879006096383e+00 1.6095278410608742e+00 0 0 0
1137 1 8.4404042547138296e+00 4.3905265299838758e+00 2.7526642944840027e+00 0 0 1
817 1 7.9086859537036802e-01 9.0640851729021032e-01 2.2426299716995595e+00 0 1 0
159 1 1.8566648805396870e+00 1.1573527500918983e+00 2.1205074133342561e+00 0 0 0
992 1 1.2325401008744010e+00 1.5768047078660568e+00 3.0374767322677636e+00 0 0 0
966 1 1.7144681261212229e+00 5.8240247451986926e-01 2.9719446959404725e+00 0 0 0
1134 1 2.2843215298591293e+00 1.7498801581822874e+00 2.8877600476261378e+00 0 0 1
1040 1 2.9701946410701714e+00 1.5296040907159718e+00 1.9505876851114439e+00 0 0 0
1358 1 2.7903428616713146e+00 7.2088244644427191e-01 2.5365877889246837e+00 0 1 1
1621 1 6.8167608581278838e+00 3.8900216215346179e+00 3.2885344765983007e+00 0 0 0
3878 2 3.6243362345514969e+00 8.6605734355925079e-01 2.5003996616073785e+00 0 0 1
631 1 3.2141338424822585e+00 1.3585244782861263e+00 3.2176898065685595e+00 0 0 0
3756 2 4.9269737178515616e+00 2.3906814945891319e-01 1.7123780476152510e+00 0 0 1
767 1 6.4013515939733967e+00 1.5899133910004223e-01 1.1450093564622346e+00 0 1 0
575 1 4.3792592105805284e+00 9.3759568076892819e-01 3.0191693314504207e+00 0 0 0
722 1 4.7100155811277933e+00 1.0115303518048528e+00 1.9921449231533290e+00 0 1 0
1147 1 5.1315630996242696e+00 3.1475863797373005e-01 2.7456611707037442e+00 0 0 1
1351 1 5.8099729975774688e+00 3.6227368595743908e-01 1.9626496598878220e+00 0 1 0
4063 2 8.4537275344263829e+00 3.5416708890041192e-02 2.9668704937516139e+00 0 1 1
2538 1 9.1820554071406288e+00 8.5145749982527441e-01 1.0585138794635094e+00 0 0 0
1457 1 8.4175214039019064e+00 3.5234563013653259e+00 3.5311880606515782e+00 0 0 0
955 1 6.1096404240405171e+00 4.4217859571304885e+00 3.8442362682561422e+00 0 0 0
3482 2 7.6032534982489279e+00 4.1525585787784172e+00 1.0040054285860860e-01 0 0 1
4228 2 1.1325829932994351e+00 2.1076281675138989e-01 1.8358223338645903e+00 1 0 0
1071 1 5.5156555182409459e+00 1.2499904552995666e+00 4.6826104900740360e+00 0 0 -1
3847 2 7.7893231943793957e+00 4.3785347088497444e+00 3.3668071305938074e+00 0 0 0
1359 1 6.3841581357703632e+00 9.6873907611556476e-01 2.0833673659737853e-01 0 1 1
1584 1 5.9861264207853160e-01 1.5765999975799865e+00 3.9195785634347153e+00 0 0 0
4044 2 1.0520014704413086e+01 3.8018374732653304e+00 1.5348440813123940e+00 0 1 0
2544 1 1.0030032585331343e+01 2.7869990082592957e+00 4.6433405914992871e+00 0 0 0
577 1 2.0372212545549528e+00 1.6205137221538413e-01 2.0527471979356355e+00 0 0 0
1376 1 1.5020941013205755e+00 2.4680163901453951e+00 2.4555858574111884e+00 0 1 0
3606 2 1.4474204619084001e+00 3.3500952532380843e+00 2.1962272748712235e+00 0 0 0
2941 1 2.4032061428312943e+00 3.3796321264830333e+00 2.4295189501209635e+00 1 0 0
3608 2 2.2868416560500799e+00 2.6410885264894701e+00 2.9412757711727719e+00 0 0 0
3128 1 1.6528391071414550e+00 3.2993930514474554e+00 3.1691505592133784e+00 1 0 0
555 1 2.3761472185069579e+00 2.3824787987506113e+00 2.0622565567218376e+00 0 0 0
505 1 3.6115490063637337e+00 2.5185568917466719e+00 1.7376830162716199e+00 0 0 0
663 1 3.1099457004787778e+00 2.3342397137865669e+00 2.8865585131968317e+00 0 0 0
3686 2 3.2065586680734075e+00 2.9871340384516518e+00 2.2813228661832938e+00 0 1 0
1446 1 4.1058990299843199e+00 2.7688799957626014e+00 2.5665826983987814e+00 0 0 0
568 1 3.8991249041638563e+00 1.6373492355343806e+00 2.3984080110582768e+00 0 0 0
3703 2 4.4206823633221806e+00 2.9772717967995614e+00 1.7604296348352704e+00 0 0 0
3533 2 5.2969850790426536e+00 1.2009585989790390e+00 2.7179636677730024e+00 0 1 0
1462 1 4.6785284814253760e+00 2.1148590480610761e+00 1.8849551789364638e+00 0 0 0
1511 1 4.9987493169878414e+00 2.0512161098099626e+00 2.8581373629000262e+00 0 0 0
1561 1 5.5257980146688368e+00 2.7027229606160623e+00 2.1470802171356835e+00 0 0 0
2197 1 6.1190584147723799e+00 9.1151081884787644e-01 2.8122382669074675e+00 0 1 0
566 1 5.6663300199132394e+00 1.5774375667497258e+00 1.9616608366837862e+00 0 0 0
1437 1 6.5631857735994803e+00 2.2179396185333538e+00 2.0139505427577102e+00 0 0 0
2101 1 6.6886195577564944e+00 1.1816422823042199e+00 1.8637096668839135e+00 0 0 1
3946 2 6.6895445150463839e+00 1.5532764052603101e+00 2.6364747887182904e+00 0 1 0
1721 1 6.0365490740259737e+00 2.0706169560292937e+00 2.9894818389917299e+00 0 1 0
2421 1 7.0562196030713427e+00 2.1708338845564423e+00 3.2254519552448593e+00 0 0 0
2689 1 8.3649153636451299e+00 9.3038711517922745e-01 3.0139851175325143e+00 0 0 0
56 1 2.6593299203421967e+00 1.8151917577852621e+00 5.2061289435322546e-02 0 0 0
1191 1 4.4300857898156742e+00 4.4878961920557465e+00 3.7955220957247846e+00 0 0 0
1696 1 6.8201116863108764e+00 3.6847628559481311e+00 4.3654248432158038e+00 0 0 0
1489 1 9.3123751771525480e+00 1.1233504925332329e+00 3.4229219293226349e+00 0 0 0
2037 1 6.2013743943509887e+00 4.3830932748028841e+00 2.5692820558214762e+00 0 0 0
1031 1 1.0673576476136450e+01 4.1332585803847248e+00 6.3710455588027626e-01 0 0 0
2112 1 9.8306049533062811e+00 4.3060568646267727e+00 1.5567654098068218e+00 0 0 0
1588 1 8.5866309918867181e+00 4.5498479703511618e+00 3.8355480855409696e+00 0 0 0
2141 1 7.3484118466089434e+00 4.4077504035431492e+00 9.2240295680513140e-01 0 0 1
242 1 2.5467149906916657e+00 1.9399117433820035e-01 1.0354744070693471e+00 0 0 1
2592 1 1.0400029686276778e+01 4.5014737277029075e+00 4.4199564034419812e+00 0 0 0
1039 1 2.8550130929420150e+00 4.3461120284521533e+00 2.2124410984279965e+00 0 0 0
717 1 1.5660957178715962e+00 4.2819668632255343e+00 7.4481321196310379e-01 0 0 1
3619 2 2.4326275319576132e+00 3.8803670399765808e+00 3.1114455269782426e+00 0 0 1
586 1 1.8091438278677172e+00 4.1887514161201915e+00 2.4689267920931832e+00 0 0 0
3040 1 2.8318108248981995e+00 4.6785024156572019e+00 1.8823491117152816e-01 1 0 0
1682 1 6.4025220944474492e+00 2.9646060913728882e+00 3.5687588198105162e+00 0 0 0
1440 1 3.2827593223051634e+00 3.5305202735845977e+00 2.9114750208150482e+00 0 0 0
664 1 3.8025559878551345e+00 3.6424178757927685e+00 2.0177693266206780e+00 0 0 0
550 1 3.6548973696477471e+00 4.5531245528457029e+00 3.0138464148599065e+00 0 0 0
655 1 4.5191207961020883e+00 4.5965115282301223e+00 2.4879084209655762e+00 0 0 1
994 1 4.3583417146614227e+00 3.6141799793527771e+00 3.2582261766421281e+00 0 0 0
1428 1 5.7560815257145110e+00 3.7585972511415116e+00 1.7161962516926794e+00 0 0 0
1613 1 8.8965643219340009e+00 3.8449597961698210e+00 4.5058072971473075e+00 0 0 0
534 1 5.4387346530616183e+00 3.0480764315687749e+00 3.1058431196955487e+00 0 0 0
1271 1 4.9243851751091423e+00 3.4563557604769928e+00 2.3057455750878857e+00 0 1 0
1474 1 9.3305178529011972e+00 4.0164954254623328e+00 3.2941883927025408e+00 0 0 0
3838 2 5.9652849964833718e+00 3.6943331656345517e+00 3.3924550223571135e+00 0 0 0
3127 1 2.3763960628267409e+00 4.1323266646064232e+00 3.9832055040544128e+00 1 0 0
1072 1 7.3599766740488599e+00 2.8661769804982624e+00 2.1891483487376475e+00 0 0 0
1535 1 6.3708559670636085e+00 3.2337841205445010e+00 2.5548137317360751e+00 0 0 0
3964 2 7.0887226114336617e+00 3.0526188978753033e+00 2.9811972176091461e+00 0 1 0
1858 1 6.9590868321496409e+00 1.0776165307180301e+00 4.5838634542346659e+00 0 1 0
1988 1 9.9654133577192727e+00 1.8346530485931682e+00 1.7344410469751093e+00 0 0 0
2076 1 7.2646676544756073e+00 1.0856004710025471e+00 3.0534383201063986e+00 0 0 1
2850 1 9.1860312107936490e+00 1.1976627436095901e+00 2.0408396378784972e+00 0 1 0
1098 1 7.2007471474975420e+00 1.6305481955980152e+00 1.3469034874696689e-01 0 0 1
1607 1 8.4637675843850388e+00 4.3358169028772595e+00 4.5061291135610981e-01 0 0 1
599 1 1.9770393341720758e+00 4.6488456086682217e-01 4.0439595891472297e+00 0 0 0
4129 2 1.0184144499276439e+01 4.0244130073257098e+00 3.1701613171307819e+00 1 0 1
4238 2 1.6919381565443277e+00 4.5417141068486453e+00 1.6338896564258050e+00 1 0 0
513 1 3.9263148317742234e+00 4.6186436844180516e+00 4.6870966821526903e+00 0 0 0
2631 1 9.5611657614606624e+00 1.9000903367177882e+00 2.7492424243246387e+00 0 0 0
1001 1 6.4261178094500515e+00 2.5834348802967271e+00 1.5883404205933549e-01 0 0 0
1880 1 7.6754220236326596e+00 3.6649325983581713e+00 2.8128849297688823e+00 0 0 0
1029 1 5.3020503533664387e+00 7.2168355083745950e-01 2.1335047297910897e-02 0 0 0
3464 2 1.3077528333648663e+00 1.0986502775988709e+00 3.8009761021947033e+00 0 0 -1
652 1 1.4831349056637300e+00 1.6795371864245314e+00 4.4600980109567496e+00 0 0 0
1622 1 7.4062570248261554e+00 3.0651685055850697e+00 3.7476467258074972e+00 0 0 0
991 1 6.8956610486531984e+00 2.5429632800792201e-01 2.4175290707407973e+00 0 0 0
4264 2 2.5436161244916811e+00 8.5104408512587004e-01 3.3552375832801027e+00 1 0 1
1054 1 3.1249754523298789e+00 6.3169531478884733e-01 4.0002079931069794e+00 0 0 0
481 1 2.3471763635912115e+00 1.4790996966286518e+00 3.9287269221364269e+00 0 0 0
235 1 4.0018108296438415e+00 1.1530003965154383e+00 3.9254661809218252e+00 0 0 0
887 1 9.1492922793126330e-01 6.0648033125569456e-01 4.3923970356043167e+00 0 1 0
3856 2 4.5278873460275451e+00 2.4019534911412452e-01 3.5440745772985776e+00 0 0 0
2360 1 4.7743265742349310e+00 6.2406135368933568e-01 4.3213032299478042e+00 0 1 0
1066 1 9.8148396733987830e+00 2.3051752028957511e+00 8.5756530625573824e-01 0 0 0
3587 2 6.9491164804989305e+00 4.0036848082361480e+00 2.4250059247266011e+00 0 0 0
1950 1 6.7022200832386813e+00 5.0231117614486553e-01 3.6146884437449596e+00 0 0 0
4029 2 6.2451606258578014e+00 6.1707305259144929e-01 4.3962824811915917e+00 0 1 0
580 1 5.6309123333183928e+00 3.3173882863149901e-01 3.7001096114469374e+00 0 0 0
2132 1 8.6174620998124389e+00 3.3894349561187642e-01 3.8567688779461298e+00 0 0 0
1538 1 7.6867168714179339e+00 1.2945613771118347e-01 3.2524434506888311e+00 0 0 0
1425 1 7.6774360757882398e+00 2.1222664959341726e+00 4.0003158934227461e+00 0 1 0
4296 2 6.6124334448228801e+00 4.5681688539333676e+00 4.5156461211080137e+00 1 0 0
1242 1 3.6855004268033449e+00 1.6172182294152857e+00 2.3171751967266835e-01 0 1 0
906 1 7.4704416278398993e+00 1.8254896653048058e+00 2.3013930381211609e+00 0 1 0
1519 1 8.0245396365904256e+00 2.8251405705823840e-01 2.2318534862186112e+00 0 0 0
3772 2 1.2122121192966211e+00 5.6566838285241994e-01 4.6709489938973842e-01 0 1 1
2513 1 8.2711702724373044e+00 3.3172712065407117e-01 1.1560103985678560e+00 0 0 0
2084 1 8.1386366872490612e+00 3.3207020267354030e+00 1.8340993080134857e-01 0 0 1
2854 1 8.9297996103018242e+00 1.1360781088191225e+00 4.4384030356899418e+00 0 1 0
1357 1 4.1776701106892373e+00 1.3578841313848727e-01 2.2678793751768347e+00 0 1 1
1050 1 4.9436808664587986e+00 2.6034879263265283e+00 9.2958266762192474e-02 0 0 0
1562 1 5.6064331687194233e+00 4.7707335650324927e+00 1.3740585288933782e+00 0 0 1
1536 1 6.7106437812046869e+00 4.7876504339051458e+00 1.6781156361454128e+00 0 0 0
1165 1 1.6796585359725720e+00 2.3410775248274001e+00 3.6159645658365740e+00 0 0 0
802 1 1.6997553739522240e+00 3.3593853404117859e+00 4.2702338587282975e+00 0 1 0
572 1 2.5832851353506543e+00 3.1475425962000214e+00 3.6149658926575330e+00 0 0 0
1167 1 2.4461973251696048e+00 2.4487684968305241e+00 4.4320966103369299e+00 0 0 0
1117 1 3.6507990790667098e+00 4.0302867876623623e+00 2.0651459521556070e-01 0 0 1
3719 2 2.5964615803629911e+00 3.4173766167504764e+00 4.4514260436097342e+00 0 0 -1
4119 2 2.7836219543347207e+00 2.2366974938393098e+00 3.6716181175308242e+00 0 0 0
1007 1 3.4403185896710977e+00 1.9750295286837880e+00 4.2529318211529743e+00 0 0 0
2164 1 3.6355026307252860e+00 2.7983550241579320e+00 3.6596943766875576e+00 0 0 1
3884 2 4.1054157411024370e+00 2.6311843399495598e+00 4.3497303595476975e+00 0 0 1
1062 1 4.0953978440562988e+00 1.9638719782616101e+00 3.3298219055876066e+00 0 0 0
1194 1 5.2204161647779914e+00 1.2971471654898641e+00 3.5597334210949949e+00 0 1 0
814 1 4.6575958442052716e+00 1.8770450875419540e+00 4.3644726791602997e+00 0 1 0
1081 1 4.6782140015889695e+00 2.7085149803563509e+00 3.6448299522829632e+00 0 0 1
860 1 5.5779556303972146e+00 2.2720495377052417e+00 4.0690060037577700e+00 0 1 1
3460 2 7.8752732391607747e+00 1.6730187662479550e+00 3.2518069172849589e+00 -1 0 0
2250 1 7.8662720630835459e+00 1.0823265101845578e+00 3.9284636031743716e+00 0 1 0
2098 1 5.6609441421289981e+00 3.3905609533666987e+00 2.5481324081999174e-01 0 0 1
1573 1 6.2382925697620868e+00 1.3482152747708545e+00 3.8272466784374095e+00 0 0 0
537 1 6.6442980958505204e+00 2.1373962615005340e+00 4.2642239535860655e+00 0 0 0
508 1 5.2883840074106949e+00 4.2934838272009088e+00 3.1742435375510789e+00 0 0 0
964 1 9.1900498327250464e+00 2.4912349946293988e+00 1.9485941124734576e+00 0 0 0
2063 1 9.0510119959192821e+00 2.9196441450614206e+00 2.9785273162819719e+00 0 0 0
124 1 4.1986048232467601e+00 3.5387064722032142e+00 4.2897686023838029e+00 0 0 0
137 1 3.7892560002443981e-01 8.7983218044412281e-01 1.8806333453835059e-01 0 0 1
4042 2 2.0511877248469426e+00 1.0027822185793047e+00 4.7304434911389626e+00 0 1 0
3688 2 1.9637550222431532e+00 4.2476138506595342e+00 4.7153632622131170e+00 0 1 0
1463 1 7.1523218204376597e+00 4.7401194066177439e+00 3.8183962769247115e+00 0 0 0
4214 2 7.0335040184097497e-01 1.9746331418777228e+00 2.4598057702314140e+00 1 0 0
3867 2 8.2274270405906620e+00 4.4047456903850106e+00 4.8124522027252068e+00 0 0 0
733 1 3.9785456025438810e+00 2.9328797821149322e+00 7.6543132683013840e-02 0 1 0
548 1 4.9220170389884670e+00 2.9538930677869968e+00 4.6970811083595079e+00 0 0 0
1906 1 5.5741736237741470e+00 4.3377751816964681e-03 4.7393936886482395e+00 0 1 0
2996 1 2.4419811641992832e+00 4.7021152063416904e+00 1.2169048446490416e+00 1 0 0
4177 2 3.8790214227858941e+00 1.5155941573342686e+00 4.8201600937377505e+00 0 1 0
3730 2 1.0499815435564372e+01 2.4954601088664599e+00 1.7493141665603820e+00 0 0 -1
971 1 9.0184870808877982e+00 2.5736180558491970e+00 6.8044778232583841e-02 0 0 0
1402 1 4.4741880734135311e+00 3.8429211485270225e-02 2.2717821227845494e-01 0 1 1
1488 1 5.6470865598539639e+00 4.3814852800803159e+00 1.1158845333077975e-01 0 0 0
1076 1 1.0072287069583062e+01 1.3019666024450629e+00 7.5898679872771058e-01 0 0 0
2171 1 1.0744686360838539e+01 3.2995700325868200e+00 3.1573615590222373e+00 0 0 0
628 1 5.9066784201898219e+00 4.1434605456385079e+00 4.8092495718725523e+00 0 0 0
21 1 1.3774823403358396e+00 2.3264194638166518e+00 7.0194486173532095e-03 0 0 0
574 1 3.0396044008074483e+00 4.0891322306245490e+00 4.8247089067439530e+00 0 0 0
624 1 5.6584709243098974e+00 1.8019109660557175e+00 7.9047380799127393e-03 0 0 1
2100 1 9.1335895280655830e+00 3.6028286277562391e+00 6.2453980689846276e+00 0 0 0
1626 1 5.9952844276985386e+00 2.4508728480073314e-01 9.0553724983993913e+00 0 0 0
617 1 5.2724115768515087e+00 4.3261026497388420e+00 8.1251859100166239e+00 0 0 0
1171 1 8.0426750475366582e+00 2.5472711555421270e+00 5.5526684228514247e+00 0 0 0
1069 1 2.0309839121931192e+00 1.8884849376908157e+00 5.2920323262853373e+00 0 0 0
1082 1 9.9208776828965082e+00 2.7633008194240700e+00 5.7186454784906857e+00 0 0 0
3584 2 1.0073680901425959e+00 1.5936802283197091e+00 9.4763326475998735e+00 0 0 0
2038 1 1.0468819857456742e+01 3.9722597763187806e+00 5.9733013620972946e+00 0 0 0
4220 2 7.5247511699795266e+00 8.6977242438516267e-01 7.4028179435481674e+00 0 0 -1
3728 2 9.0211732300813239e+00 2.7967679683423281e+00 7.8914443408948802e+00 0 0 0
1628 1 7.7766002433773238e+00 3.7576870198271259e+00 8.0961420813391936e+00 0 0 0
4175 2 8.3077026120937187e+00 7.8289548713784282e-02 7.7308280326600283e+00 0 1 0
2165 1 9.8129515338740543e+00 2.0784931713415089e+00 6.6816315050093618e+00 0 0 0
3513 2 1.2322610392339515e+00 1.9080483867633218e+00 5.5537275660040226e+00 0 0 0
842 1 1.3252921369096602e+00 1.0387461352774923e+00 5.3025788614381701e+00 0 1 0
913 1 1.7072070407134332e+00 1.5489340904464386e+00 6.2385024874521138e+00 0 1 0
517 1 4.4886690011100159e+00 4.5260636898731681e+00 9.2865649233230165e+00 0 0 0
1904 1 7.2975031749815678e+00 1.2056384191311755e+00 5.7472639723882155e+00 0 1 0
3611 2 3.1201610855832023e+00 5.8432480927256436e-01 5.4963112679756829e+00 0 0 1
3752 2 2.8119185744391939e+00 1.5244779485412905e+00 5.6465680146037593e+00 0 0 0
526 1 2.2456791635459483e+00 7.6369389576985980e-01 5.6213353426077051e+00 0 0 -1
1080 1 3.0087683837530901e+00 9.0116356468721615e-01 6.2764270454510056e+00 0 0 0
1514 1 5.7170990584952701e+00 2.7688051672392824e+00 9.0881434419423606e+00 0 0 -1
1128 1 3.6777901135821223e+00 1.4048699901536812e+00 5.6745576049272435e+00 0 0 1
1557 1 8.7706623271864910e+00 3.6709026261848470e+00 8.2050929953460816e+00 0 0 0
2053 1 8.0779708422294654e+00 1.6802546318063898e+00 6.3859273474892841e+00 0 0 0
1683 1 4.7099758110607528e+00 5.4862797463300539e-01 6.2085627910850283e+00 0 0 0
1199 1 4.6501416994603231e+00 1.1806269681156316e+00 5.3216809561086578e+00 0 1 0
3749 2 7.5378211415516221e+00 3.0073742978323046e+00 8.4502784472434023e+00 0 0 0
4122 2 5.3708137890506444e+00 6.4930591854541397e-01 5.3399592190478771e+00 0 0 0
1349 1 5.6344338883358720e+00 1.5163186828793956e-01 6.0532902267797004e+00 0 1 0
889 1 6.2350169404127751e+00 6.2723255350891438e-01 5.2596320398838730e+00 0 1 0
1021 1 7.4861813134836908e+00 2.5998323362089142e+00 9.3796456021319994e+00 0 0 0
1654 1 6.5114793828482584e+00 7.6609870275055392e-01 6.2841375770641408e+00 0 0 0
1984 1 9.7968047108100684e+00 8.8966188402486990e-01 5.3861327911412022e+00 0 0 0
970 1 4.9029622674569566e+00 4.0214552714141636e+00 4.9379068503006796e+00 0 0 0
3718 2 8.6827316401124222e+00 3.0627271727699662e-01 8.8923704618946839e+00 -1 0 -1
2612 1 9.7746070723571545e+00 1.5494716474983170e+00 8.5008623730283599e+00 0 0 0
1958 1 9.9685330807548898e+00 2.1055901129285304e+00 9.4542656169553627e+00 0 0 -1
1566 1 5.8840360228097186e+00 3.4731210260710470e+00 8.3401014060940479e+00 0 0 0
2619 1 9.8118104482466872e+00 4.2071406666959676e+00 6.8842567459874520e+00 0 0 0
3518 2 2.9151707182462858e+00 9.9063699124605609e-02 6.7953779124332483e+00 0 1 0
3893 2 9.7263271101123241e+00 4.4129046355627555e+00 6.0551728351343499e+00 0 0 1
3975 2 1.0402046954286062e+01 3.6439481933031361e+00 7.2583104212837917e+00 0 0 -1
3761 2 6.3115514657449951e+00 4.4472948054342583e+00 7.0500613664392606e+00 0 0 0
1963 1 7.4278693164860385e+00 1.8876690649153065e+00 4.9997072874684001e+00 0 0 0
1180 1 1.8893726339850176e+00 2.5873004828341184e+00 6.1340174418694593e+00 0 0 0
1482 1 2.4294177550885765e+00 3.1736412756811694e+00 5.2581129868358740e+00 0 0 0
370 1 1.6299105445263211e+00 6.9835759651048268e-01 8.2328348889877105e+00 0 1 0
675 1 2.0219266947630059e+00 3.6037450789477492e+00 6.2365470361490951e+00 0 0 0
1836 1 5.3824413085119494e+00 1.3332005738189404e-01 8.0556084603632332e+00 0 1 0
1114 1 3.0675473739461507e+00 2.2832293002701745e+00 5.3564810441861361e+00 0 0 0
1187 1 3.6975299613857526e+00 2.3032913256329324e+00 6.1711087364532542e+00 0 0 0
659 1 2.8837080764305316e+00 3.0138340041682734e+00 6.2483652458506418e+00 0 0 0
3713 2 3.5801389279358595e+00 2.9666954595577857e+00 5.6566469961039383e+00 0 0 0
698 1 2.6656269958145837e+00 1.9472613092037703e+00 6.4070137899010886e+00 0 0 0
1177 1 4.1720252241698788e+00 2.3053942241269860e+00 5.1808440890169427e+00 0 0 0
1853 1 4.5672029970771595e+00 1.7309502539973924e+00 6.1411743299098092e+00 0 1 1
3123 1 4.7600067614026189e+00 2.7352525698790635e+00 6.0148860997037783e+00 1 0 0
3577 2 5.4427476640169008e+00 2.1453688991584570e+00 6.0957266024411920e+00 0 0 -1
1676 1 5.4142942973945782e+00 2.1690650931207633e+00 5.1911491171172210e+00 0 0 0
1647 1 5.5104107909783950e+00 1.3466042438011629e+00 5.8413491122298788e+00 0 0 0
3707 2 5.8487294443260840e+00 1.1264318153339665e+00 9.1567485544029079e+00 0 0 -1
1438 1 8.2315015053955811e+00 4.1229050899188158e+00 9.0782460431443432e+00 0 0 -1
1153 1 6.2349462874643455e+00 1.8481075664429329e+00 6.4030154863148878e+00 0 0 0
1578 1 1.0538809710729273e+01 4.2748806401107462e+00 7.7984114757378160e+00 0 0 0
998 1 7.0834469485774756e+00 4.1990513464032020e+00 6.6017061030415514e+00 0 0 0
231 1 5.2494598868340718e+00 4.5974627114234039e+00 6.9064380782882013e+00 0 0 0
2610 1 8.6894121653131435e+00 2.0593685505106691e+00 8.3377560147673417e+00 0 0 0
1688 1 8.2248669333078688e+00 3.7655822524472344e+00 5.4019562807313646e+00 0 0 0
1518 1 7.3431418923553542e+00 4.5149694810054051e+00 5.0137016760396387e+00 0 0 0
2123 1 8.2015632783930599e+00 6.3957160758179898e-01 6.0141441997659149e+00 0 0 0
323 1 1.7857428810566742e+00 3.2828519748942515e+00 9.5801230506622161e+00 0 1 -1
3811 2 4.1211964123366168e-01 8.3220818429197752e-01 5.1706317179464980e+00 0 1 0
1115 1 7.4265542779116780e+00 3.3306681646514131e+00 5.9215452913775897e+00 0 0 0
601 1 2.2956811253834259e+00 4.4012573959353132e+00 5.5687674209253677e+00 0 0 0
1093 1 3.2873224891632473e+00 3.8207311788951288e+00 5.8382875750759737e+00 0 0 0
4130 2 7.6773112656206610e+00 4.3223580707722355e+00 7.2469058492471721e+00 0 0 -1
2088 1 4.1541823959621968e+00 3.5094346850928511e+00 5.3772571185895970e+00 0 0 0
127 1 3.9557852793958785e+00 3.3104639865071666e+00 6.5402622188007076e+00 0 0 0
784 1 6.7011930414989500e+00 5.4723838399446778e-01 7.2772755975620020e+00 0 1 0
1085 1 5.5575473353162055e+00 3.4116489849827323e+00 5.5886099744659790e+00 0 0 0
3016 1 4.8876952453055047e+00 3.8181730592080476e+00 6.3017380298413732e+00 1 0 0
1184 1 6.0422258645329752e+00 3.9143094665663494e+00 6.3585054730189405e+00 0 0 0
1030 1 6.2792628073235299e+00 2.6079738972532964e+00 5.6719298329352723e+00 0 0 0
1504 1 6.6806488846182521e+00 3.7639310234365779e+00 5.4677355909866838e+00 0 0 0
2071 1 7.5630566844997444e+00 3.4347217023270669e+00 7.1521953152097346e+00 0 0 0