ITEM: TIMESTEP
240000
ITEM: NUMBER OF ATOMS
4320
ITEM: BOX BOUNDS xy xz yz pp pp pp 
0 28.965 9.655
0 19.31 0
0 9.655 0
ITEM: ATOMS id type x y z ix iy iz flow_displacement grad_box_change 
3870 2 9.91111 4.76718 0.783338 0 -1 0 -4.11097 0 
701 1 7.21904 1.54288 2.8729 0 0 0 -4.59511 0 
2399 1 4.75071 8.43252 1.38804 0 0 0 0.666556 0 
3119 1 7.33407 2.72718 7.85238 0 0 0 -4.1476 0 
1 1 8.39027 4.72789 1.05757 0 0 0 -4.69427 0 
1737 1 7.2948 7.18177 4.81382 0 0 0 -2.52288 0 
3767 2 10.9154 7.27841 0.812656 0 0 2 -1.98162 0 
2991 1 10.8534 7.61585 7.20741 0 0 -1 -1.70893 0 
2092 1 12.7602 6.23583 3.02005 0 0 0 -2.58587 0 
3379 1 11.7453 6.26148 1.79317 0 0 0 -2.55416 0 
1585 1 10.2713 5.28264 5.18348 0 0 0 -3.8062 0 
3529 2 11.0494 3.45892 5.08015 -1 1 -1 -3.83609 0 
664 1 1.5764 0.114324 8.40278 0 0 0 -4.8163 1 
529 1 10.375 2.21583 2.81752 -1 0 1 -4.07246 0 
1944 1 4.64854 9.16124 2.04005 0 0 0 1.33016 0 
3203 1 0.926377 1.39413 0.391588 1 0 0 -4.53281 0 
1264 1 1.66509 1.52694 1.23691 0 1 0 -4.4545 0 
756 1 7.69477 7.70547 5.66709 0 0 1 -1.13667 0 
3758 2 1.79067 0.757232 1.73904 0 0 1 -4.59558 0 
663 1 2.41869 0.802673 1.15351 0 0 0 -4.58509 0 
963 1 2.07681 1.3777 0.27833 0 1 1 -4.63369 0 
4222 2 2.07825 0.503497 0.457024 1 0 -1 -4.59628 0 
899 1 8.30077 7.9607 3.41012 0 0 0 -1.72552 0 
1252 1 2.89605 0.390118 0.244963 0 1 1 -4.57054 0 
2154 1 3.34276 0.816439 1.70852 0 0 1 -4.57227 0 
4078 2 3.71225 1.29227 0.15138 0 1 0 -4.32653 0 
1783 1 4.91672 0.396098 0.82729 0 1 0 -4.49469 0 
1177 1 4.32771 1.44106 0.958368 0 0 1 -4.36736 0 
2805 1 3.78126 0.512605 0.745675 1 1 1 -4.65197 0 
4061 2 6.64857 4.67922 5.81408 0 1 1 -2.95395 0 
4319 2 5.63042 2.85225 6.95552 1 0 0 -4.13782 0 
2237 1 9.71478 7.46767 2.84727 0 -1 0 -1.32665 0 
3415 1 8.29082 6.86965 5.77423 0 1 0 -3.0274 0 
1861 1 8.53931 8.98261 6.61873 0 0 0 0.443181 0 
1707 1 7.6546 5.70538 7.0921 0 0 -1 -2.38096 0 
3889 2 6.47181 8.12512 1.75303 0 -1 1 -1.17903 0 
4118 2 5.69085 9.28712 1.45939 1 1 1 -0.0896867 0 
2059 1 7.7161 1.91285 3.80435 0 0 0 -4.35862 0 
2730 1 8.82789 3.17688 8.8589 0 0 0 -4.00677 0 
3611 2 6.67735 2.01813 6.32995 0 0 -1 -4.43578 0 
2935 1 10.3776 1.58039 6.59342 0 1 -1 -4.40646 0 
128 1 8.88334 4.20742 8.77551 -1 0 -1 -3.96148 0 
245 1 5.50589 9.39653 4.87582 0 0 0 -0.925474 0 
153 1 3.44225 6.50921 8.00566 0 0 0 -3.07015 0 
2721 1 12.3624 7.85105 2.38081 0 0 0 -1.15089 0 
2161 1 11.0895 6.25242 8.03853 0 0 0 -2.05781 0 
3793 2 10.3822 3.42308 6.71872 0 1 -1 -3.99404 0 
149 1 9.5265 0.969428 1.91815 -1 0 0 -4.46375 0 
671 1 9.92722 0.799952 7.4003 -1 0 0 -4.48003 0 
3626 2 1.56938 2.05204 0.136246 0 0 0 -4.47366 0 
1535 1 10.0174 9.27196 0.95305 0 0 1 -0.536319 0 
3986 2 10.6338 2.31126 7.24206 0 0 -1 -4.07608 0 
1055 1 3.25388 1.53922 0.919944 0 0 0 -4.29355 0 
3784 2 2.44029 1.75793 1.17938 0 0 -1 -4.37665 0 
629 1 2.17863 2.46636 0.647547 0 0 0 -4.45609 0 
1563 1 3.12159 2.57707 1.28607 0 0 0 -4.32458 0 
576 1 3.98574 3.08108 0.562516 0 0 0 -4.14227 0 
1632 1 3.86226 1.74442 1.85347 0 0 0 -4.25721 0 
3737 2 3.9376 2.20335 1.0087 1 1 0 -4.33604 0 
3175 1 4.84147 2.31723 0.811055 1 0 1 -4.30306 0 
1395 1 4.30104 2.7604 1.59649 0 1 1 -4.14572 0 
3814 2 4.67406 2.84616 0.0114048 -1 0 2 -4.20377 0 
1104 1 4.01408 2.08083 0.19478 0 0 0 -4.30178 0 
1604 1 8.75535 1.9471 3.42174 0 0 0 -4.19406 0 
4201 2 8.9155 7.42211 1.75633 0 -1 0 -1.24297 0 
2029 1 6.45561 1.92002 5.48793 0 0 0 -4.391 0 
4209 2 2.88285 5.65616 5.58738 1 0 0 -3.9193 0 
723 1 6.7255 0.214272 5.8952 0 0 0 -4.60945 0 
2275 1 9.85117 8.50736 0.186681 0 0 1 0.406128 0 
1793 1 9.12367 6.18604 5.32035 0 0 0 -2.65745 0 
3961 2 7.98311 1.74256 6.37205 0 0 0 -4.36301 0 
3716 2 7.75331 1.74754 1.76681 0 0 0 -4.21402 0 
146 1 3.11161 5.78422 9.64313 0 0 -1 -3.30644 0 
2233 1 11.2051 4.83809 2.3173 0 0 1 -3.92054 0 
3938 2 8.87377 4.52026 5.10364 0 0 0 -4.60333 0 
3341 1 10.8342 3.38284 4.25262 0 0 0 -4.14934 0 
4246 2 8.71039 7.35549 7.81506 0 0 -1 -0.389408 0 
1722 1 3.41255 0.165087 2.61341 0 0 1 -4.57861 0 
650 1 11.8225 5.19235 4.36049 0 0 0 -3.33124 0 
1243 1 6.02182 9.41976 7.32665 0 0 0 0.722574 0 
2666 1 10.1821 2.41963 1.71552 0 0 0 -4.04409 0 
810 1 3.01588 3.44773 0.653324 0 1 1 -4.00234 0 
307 1 5.46616 9.6209 3.05429 0 0 0 0.0864747 0 
981 1 4.12783 4.07629 0.789606 0 1 0 -3.16662 0 
3546 2 3.14138 4.32115 0.324459 0 0 1 -3.83171 0 
2081 1 3.60819 3.50054 1.57045 0 0 0 -4.10237 0 
2050 1 2.41919 3.49022 1.56621 0 0 0 -4.10585 0 
1503 1 5.87881 7.97631 8.7499 0 0 -1 -1.16433 0 
639 1 4.93574 3.44211 1.02291 0 0 0 -4.05525 0 
1153 1 5.32957 4.35289 1.44283 0 0 0 -4.08355 0 
1946 1 4.9204 4.66381 0.411283 0 1 0 -3.46377 0 
45 1 6.18148 3.56245 6.97636 0 0 -1 -4.14502 0 
3844 2 7.60905 4.36014 3.11501 0 0 0 -3.59255 0 
2414 1 5.91187 1.46732 1.67107 0 1 1 -4.30425 0 
140 1 5.48212 3.7953 4.18036 0 0 1 -4.08459 0 
1216 1 8.50417 8.62822 2.68658 0 0 0 -0.485605 0 
2036 1 7.98682 3.77147 8.96106 0 0 -1 -3.81498 0 
1691 1 6.62018 0.997729 1.0441 0 0 1 -4.42225 0 
3966 2 7.47941 6.16813 0.430115 0 -1 0 -3.83429 0 
2198 1 9.2788 5.14179 8.61064 0 0 0 -3.63618 0 
2630 1 9.12338 6.5695 3.13216 0 0 0 -4.07453 0 
2579 1 10.8304 5.75378 4.10226 0 0 0 -2.52967 0 
749 1 10.5134 7.09611 8.01511 0 0 0 -1.5254 0 
116 1 10.4734 4.09086 5.03269 -1 0 -1 -3.60926 0 
808 1 11.3724 7.60617 8.49067 0 0 0 -0.772618 0 
1743 1 8.57194 2.28554 1.71222 0 0 1 -4.09246 0 
3305 1 10.7368 8.24077 5.16383 0 0 0 -1.52181 0 
2062 1 9.77033 1.06644 4.4837 0 0 0 -4.54707 0 
1089 1 2.46454 0.124816 4.32406 0 0 0 -4.46179 0 
655 1 3.749 5.83499 1.11691 0 0 0 -2.08627 0 
527 1 1.0858 2.10495 1.89621 0 0 0 -4.29284 0 
2653 1 4.47391 4.95851 1.34202 0 0 1 -3.02612 0 
537 1 3.58273 4.99136 0.525322 0 0 0 -2.91776 0 
80 1 4.78553 5.77446 0.741243 0 0 -1 -2.6219 0 
4073 2 4.4766 4.69541 2.17365 0 0 0 -3.65866 0 
3679 2 4.62766 5.80789 1.76254 0 1 2 -3.45268 0 
1626 1 6.30817 7.24041 0.0485414 0 0 0 -3.14137 0 
2357 1 5.90008 5.24962 0.586007 0 0 0 -3.07956 0 
2072 1 6.97444 6.2683 2.30129 0 0 0 -3.08155 0 
2497 1 5.27226 5.43809 9.45767 0 0 -1 -3.3122 0 
1215 1 5.45464 5.4384 1.49578 0 0 1 -3.11721 0 
2665 1 6.65652 6.24187 0.533836 0 0 1 -3.56681 0 
3455 1 8.13703 5.41089 8.92025 0 0 0 -3.4978 0 
4019 2 6.46719 7.89065 6.81143 0 0 1 -4.60351 0 
2112 1 6.45318 2.06361 2.46787 0 0 0 -4.09175 0 
3338 1 8.43248 6.84832 4.69018 0 0 0 -2.55066 0 
3548 2 7.3373 1.5207 5.23558 0 1 0 -4.33894 0 
3255 1 13.2994 8.41874 8.69381 0 0 0 -1.70989 0 
2555 1 8.55912 4.37952 2.92087 0 0 0 -3.57449 0 
3541 2 11.7538 9.54794 6.08471 0 0 -2 3.00398 0 
1724 1 8.08242 5.48364 0.323981 0 0 1 -3.95438 0 
1991 1 4.69363 0.345681 9.0078 0 0 -1 -4.67209 0 
4013 2 8.9583 5.45376 9.32507 0 0 -1 -3.35292 0 
2111 1 8.9376 5.42706 3.26045 0 0 0 -3.7345 0 
3775 2 8.14866 1.46116 7.44653 0 0 1 -4.4241 0 
3738 2 9.87726 2.67306 5.71466 0 0 -2 -4.28719 0 
1989 1 7.25491 0.136979 6.80358 0 0 0 -4.44032 0 
2000 1 8.56436 9.59158 3.08492 0 0 0 0.485412 0 
1191 1 4.33916 7.39728 9.36907 0 0 -1 -2.04552 0 
4287 2 3.67597 4.85566 1.42255 0 0 0 -2.10371 0 
872 1 12.7493 8.30371 0.297845 0 0 0 0.01929 0 
1963 1 4.91043 8.84793 8.80506 0 0 0 -0.634248 0 
3539 2 4.81467 6.64462 0.454736 0 0 1 -2.24201 0 
1101 1 4.4467 6.57295 1.28036 0 0 1 -3.45756 0 
1364 1 4.80127 6.47432 9.23569 0 0 -1 -2.45489 0 
1222 1 3.81342 6.63692 0.384624 0 0 0 -2.81927 0 
1980 1 5.27568 7.32893 9.60545 0 0 -1 -2.12575 0 
312 1 10.7857 3.63619 1.2499 -1 1 1 -4.14556 0 
2416 1 7.23983 6.68406 1.3304 0 0 1 -1.14912 0 
551 1 5.61968 6.36218 0.333648 0 0 0 -3.57891 0 
4230 2 7.9282 7.40849 0.96823 1 0 0 -0.656737 0 
1784 1 7.96934 8.29841 9.18071 0 0 -1 -1.04351 0 
2536 1 7.07098 1.21961 6.32152 0 0 -1 -4.4635 0 
2954 1 9.44207 7.54248 9.615 0 0 -1 -3.26171 0 
1230 1 5.69488 5.0415 3.21498 0 0 1 -4.08798 0 
3653 2 12.181 7.90438 5.92527 -1 0 0 -1.44906 0 
4032 2 8.52645 9.4288 5.7687 1 0 -1 1.00953 0 
2881 1 11.6776 7.7058 0.735356 0 0 1 -3.12942 0 
2830 1 12.6116 6.75298 7.92373 0 0 -1 -3.22194 0 
2791 1 7.36988 2.02036 6.96036 0 1 -1 -4.46881 0 
481 1 11.4181 4.24061 7.55734 -1 1 0 -4.16369 0 
203 1 4.54101 8.51158 0.16987 0 0 1 0.75312 0 
3103 1 5.56619 2.30649 8.43728 0 0 -1 -4.53442 0 
4221 2 7.42807 3.16992 6.05584 0 1 0 -4.10372 0 
2263 1 6.77966 8.19245 0.46794 0 0 0 1.92587 0 
161 1 1.10865 2.10309 6.89572 0 0 0 -4.37294 0 
3064 1 4.38327 7.45439 0.779398 1 0 0 -1.69795 0 
204 1 5.7301 7.6031 2.03828 0 0 0 -0.360858 0 
1037 1 5.51135 0.864619 7.10425 0 0 -1 -4.5054 0 
3629 2 5.05677 8.07628 9.20271 0 0 -1 -2.56734 0 
1613 1 5.6937 8.37329 0.121492 0 0 1 -1.36057 0 
2200 1 8.35171 5.41065 7.84303 0 0 0 -3.10618 0 
738 1 9.2926 8.21772 2.16468 0 0 0 -0.400866 0 
2009 1 13.225 8.71968 1.14674 0 0 0 -0.914 0 
1908 1 7.81847 8.1369 0.642956 0 0 0 -1.31014 0 
2908 1 6.20574 1.20501 2.99197 0 1 1 -3.9609 0 
2076 1 11.8076 6.56035 8.6851 0 0 -1 -3.20224 0 
523 1 9.9527 3.92295 3.84999 -1 0 0 -4.1567 0 
3927 2 5.66568 2.2225 0.246375 -1 1 1 -4.3316 0 
4167 2 6.68344 2.5595 4.7768 0 1 0 -3.94888 0 
2173 1 11.6173 8.46716 1.85931 0 0 0 -2.2581 0 
4129 2 0.631959 0.523776 4.76927 0 0 0 -4.75126 0 
1997 1 5.46969 0.643568 9.55667 0 0 -1 -4.50149 0 
242 1 9.39597 8.4735 8.90821 -1 0 0 -0.513706 0 
2041 1 9.90778 7.80104 5.52424 0 0 0 -1.45781 0 
1656 1 11.5815 9.5475 7.72479 0 0 0 -1.1873 0 
2326 1 7.049 9.48742 7.06315 0 0 -1 -1.29005 0 
3451 1 10.3234 3.20651 3.15822 0 1 0 -4.68876 0 
1171 1 10.7876 7.2478 2.41874 0 0 0 -1.53065 0 
2 1 10.7589 6.53755 3.2052 -1 0 0 -2.0977 0 
2931 1 10.6271 4.17092 2.95808 0 1 0 -3.88812 0 
3329 1 12.7299 9.40898 6.18792 0 0 0 0.184277 0 
1259 1 11.0268 9.36149 2.0187 0 0 0 -0.50689 0 
74 1 11.9546 5.57215 8.56393 -1 0 -1 -3.63164 0 
1955 1 10.5474 9.36523 7.38125 0 0 0 0.714242 0 
1875 1 0.909555 1.00727 1.8063 0 1 1 -4.54159 0 
3905 2 0.955061 1.43099 2.60616 1 1 0 -4.56125 0 
2405 1 1.83489 1.52694 2.24151 0 1 0 -4.38657 0 
27 1 1.38909 0.651357 2.6809 0 1 0 -4.73545 0 
2689 1 1.73988 1.32769 3.28516 1 0 0 -4.5064 0 
3459 2 2.56265 1.3387 2.78198 0 0 0 -4.38835 0 
1032 1 2.50803 0.649865 2.28708 0 0 0 -4.57344 0 
820 1 3.44954 1.28789 2.71133 0 1 0 -4.42744 0 
2197 1 11.6227 8.64963 0.0662825 0 0 2 0.318289 0 
1863 1 4.44623 0.848587 1.79609 0 1 0 -4.38619 0 
1231 1 4.52235 0.221034 2.69562 0 0 1 -4.51736 0 
3639 2 4.33742 1.17296 2.89303 0 0 1 -4.34436 0 
2256 1 6.77353 6.45732 6.73463 0 0 0 -2.91548 0 
720 1 6.57093 4.55104 6.89443 0 0 0 -4.02398 0 
279 1 5.7148 3.11319 7.7842 0 0 0 -4.0617 0 
3760 2 7.49981 5.95207 2.87369 0 0 0 -4.35155 0 
1188 1 5.97893 0.559391 8.68053 0 0 0 -4.58773 0 
2911 1 5.86117 2.3284 1.06108 0 1 1 -4.17885 0 
3606 2 7.37985 4.12323 6.90845 0 0 -1 -3.56234 0 
1590 1 6.26452 7.23101 7.30077 0 0 0 -3.24714 0 
2680 1 7.423 1.09591 7.38681 0 0 0 -4.27585 0 
1587 1 8.78471 6.29769 0.119265 0 0 1 -3.05826 0 
3517 2 11.375 7.16757 3.37 -1 -1 0 -0.872305 0 
1695 1 10.7703 8.12311 0.386341 0 0 1 -1.26039 0 
2519 1 9.47956 7.06643 4.899 0 -1 0 -3.17159 0 
2592 1 11.1851 5.64091 1.01818 0 0 0 -4.45273 0 
234 1 10.6687 5.72077 1.99507 -1 0 1 -3.20877 0 
3803 2 8.09399 0.359419 7.32827 0 2 0 -4.41353 0 
2539 1 12.4676 6.97306 1.85639 0 0 0 -4.40117 0 
3237 1 13.5977 9.28534 4.83876 0 0 -1 -0.629248 0 
1363 1 8.26949 0.115198 1.53444 0 1 0 -4.8287 0 
427 1 2.09737 2.43183 1.79092 0 1 0 -4.29839 0 
699 1 1.23506 2.20945 2.90208 0 0 1 -4.35446 0 
1026 1 1.73536 3.10904 2.44945 0 0 0 -4.09746 0 
354 1 2.85745 1.86637 2.06232 0 1 0 -4.34116 0 
4141 2 3.57244 2.544 2.11983 0 2 0 -4.17065 0 
2060 1 2.30029 2.23955 2.94811 0 0 0 -4.25687 0 
753 1 2.92024 3.10356 2.34792 0 0 1 -4.07525 0 
2422 1 3.43389 2.36359 3.05498 0 1 1 -4.2666 0 
1250 1 4.96765 1.97721 1.81895 0 1 0 -4.21154 0 
706 1 4.34899 1.97136 2.69046 0 0 0 -4.20843 0 
164 1 10.071 8.86202 1.90972 0 0 1 1.38568 0 
3921 2 4.74735 2.6759 2.37145 0 1 -1 -3.94683 0 
3124 1 5.35626 2.94812 1.80205 0 0 1 -4.01528 0 
3991 2 6.88686 6.44639 4.6406 0 1 1 -2.69466 0 
3029 1 6.90051 3.72174 3.59248 0 0 0 -3.78085 0 
2196 1 5.93893 2.21679 4.40091 0 0 1 -4.25141 0 
16 1 5.10481 0.312102 6.25622 0 0 0 -4.55618 0 
3969 2 7.11514 2.37293 8.78628 0 0 0 -4.00315 0 
1094 1 6.74747 2.81579 0.742304 0 0 0 -3.95502 0 
1844 1 8.18744 6.18332 3.38126 0 0 1 -3.65393 0 
2739 1 6.79748 1.04112 2.09967 0 0 1 -4.38262 0 
2723 1 7.89787 2.70909 8.76018 0 0 0 -4.06222 0 
1184 1 12.2352 7.06919 6.25556 0 0 0 -2.58993 0 
3734 2 10.3105 7.16662 9.62697 -1 -1 0 -2.49228 0 
1829 1 11.108 9.28013 5.54647 0 0 0 -0.756313 0 
3756 2 12.9327 9.1821 3.52281 0 0 1 -1.13304 0 
2762 1 9.40541 0.411963 5.33559 0 1 -1 -4.69094 0 
1689 1 9.17582 0.470147 8.33583 0 0 0 -4.70513 0 
1241 1 10.7269 9.2368 4.4902 0 0 1 -0.137802 0 
2427 1 2.29322 3.99839 2.57882 0 1 0 -3.96055 0 
4235 2 3.58332 3.1373 3.27047 1 0 -1 -4.13141 0 
649 1 3.00595 4.41821 1.24391 0 0 1 -3.73257 0 
3508 2 3.05335 3.91216 2.07569 0 1 1 -4.14663 0 
1639 1 3.71865 4.38818 2.14643 0 0 0 -4.07903 0 
1277 1 3.24078 3.91769 2.98726 0 0 -1 -4.10665 0 
1536 1 3.93143 3.17923 2.52171 0 0 0 -4.01185 0 
3869 2 4.38764 3.99392 2.73569 0 0 -1 -3.86172 0 
533 1 4.61582 3.75178 1.91456 0 0 0 -4.0699 0 
1158 1 5.12643 3.38009 2.7873 0 0 0 -3.8844 0 
1035 1 5.24397 4.35079 2.57993 0 0 1 -3.51286 0 
2936 1 8.13913 4.6773 4.72491 0 0 1 -4.35448 0 
1371 1 5.48014 3.16152 6.17448 0 1 0 -4.05294 0 
1880 1 8.76829 7.7998 5.48499 0 0 0 -2.50629 0 
2789 1 8.65163 7.16944 8.74246 0 0 -1 -1.79029 0 
642 1 6.85707 1.7348 4.49186 0 0 0 -4.30893 0 
3800 2 7.57056 5.39721 4.51582 0 0 -1 -4.32555 0 
1316 1 9.49771 1.3938 0.202067 0 1 0 -4.35371 0 
2155 1 6.383 0.418012 7.45282 0 0 1 -4.5272 0 
2234 1 7.50176 2.40248 2.18701 0 0 1 -4.09696 0 
2661 1 8.02658 3.72699 6.43353 0 0 1 -4.08889 0 
2167 1 8.84567 1.60219 7.98999 0 0 0 -4.33466 0 
3848 2 9.73606 3.63349 5.50459 0 0 -1 -4.07655 0 
1835 1 8.35033 1.61988 0.836309 0 1 0 -4.5754 0 
3135 1 8.99628 2.44008 0.423229 0 0 1 -4.29861 0 
1849 1 9.91541 6.89946 3.76844 0 0 0 -1.85072 0 
3100 1 10.0526 4.82896 4.26468 0 0 -1 -4.45199 0 
2444 1 9.5149 5.68716 2.3781 0 0 0 -3.32093 0 
2120 1 9.44451 1.8536 2.3939 0 0 0 -4.227 0 
1921 1 6.76167 9.63648 6.02066 0 0 0 -0.535256 0 
3411 1 9.94902 1.29139 5.73507 0 1 0 -3.97479 0 
4053 2 2.32812 4.36571 1.78478 0 0 -1 -3.964 0 
1018 1 11.5793 6.63737 0.847899 0 0 -1 -3.78319 0 
717 1 10.9446 4.43801 3.97691 -1 0 1 -4.67521 0 
1083 1 3.95552 4.70441 3.1764 0 0 0 -3.94452 0 
662 1 2.89021 4.96791 2.09672 0 0 1 -3.97552 0 
635 1 2.68964 4.82972 3.13349 0 0 0 -4.37432 0 
3481 2 11.3247 9.25305 9.17601 0 0 0 0.626938 0 
1628 1 3.40542 5.56091 2.99777 0 0 0 -4.50373 0 
3475 2 4.25423 5.68423 2.84286 0 0 -1 -3.48249 0 
1421 1 6.21856 4.05716 7.94116 0 1 0 -4.17385 0 
1040 1 5.90286 5.79049 2.49293 0 0 1 -3.03675 0 
3877 2 10.0575 8.69456 4.87702 0 0 0 -2.24056 0 
1156 1 4.93798 5.34938 2.49708 0 0 0 -3.75244 0 
1745 1 5.97581 1.13124 6.14618 0 0 0 -4.53624 0 
2146 1 6.34875 4.46285 1.20799 0 0 0 -4.0592 0 
2912 1 10.1439 3.02579 4.945 0 1 0 -4.64954 0 
1236 1 6.88183 1.95642 1.42494 0 0 1 -4.21538 0 
249 1 7.05711 2.744 3.03871 0 0 1 -4.06357 0 
2139 1 8.92762 7.01554 7.01608 0 0 0 -1.26604 0 
3478 2 7.16583 2.80579 1.54154 0 0 1 -4.51711 0 
4243 2 10.3734 9.08631 2.66067 0 0 0 0.111493 0 
1102 1 7.04327 0.490791 3.14434 0 0 1 -4.18501 0 
791 1 9.67286 7.84555 8.04789 0 0 -1 -2.2565 0 
581 1 8.83354 4.14729 1.91589 -1 0 0 -3.99841 0 
2900 1 13.162 7.12127 2.67175 0 0 1 -1.67015 0 
575 1 11.7802 5.54865 6.28094 -1 0 0 -2.63367 0 
1966 1 9.87341 0.584233 2.86649 0 1 0 -5.12784 0 
2609 1 9.14845 4.14084 0.662885 0 0 0 -5.01518 0 
3614 2 10.2047 3.41571 7.98037 -1 0 -1 -3.9604 0 
2803 1 11.8591 8.69616 5.88194 0 0 0 -2.08355 0 
1559 1 8.31545 0.330882 4.43484 0 0 0 -4.42852 0 
2835 1 9.59877 4.62473 9.45667 0 0 0 -3.90634 0 
2147 1 8.88755 0.0183847 3.3539 0 0 0 -4.76704 0 
129 1 12.9753 7.30297 0.600252 -1 0 0 -2.68267 0 
3496 2 14.2094 9.27869 6.84718 0 0 -1 -2.11711 0 
224 1 4.15631 6.35383 2.30252 0 0 0 -2.27496 0 
1602 1 5.19826 6.46628 2.06488 0 0 0 -1.18196 0 
1410 1 4.47788 7.3509 3.04878 0 0 0 -1.74898 0 
1068 1 3.93683 5.37744 2.13542 0 0 0 -3.51103 0 
1160 1 5.36434 7.12178 1.0545 0 0 1 -1.82513 0 
3953 2 5.3005 7.0935 2.67115 0 0 -2 -2.71536 0 
1438 1 5.00867 6.28799 3.12776 0 0 0 -3.09138 0 
2840 1 8.11288 7.10994 1.7546 0 0 0 -1.30042 0 
1539 1 6.12034 6.46462 1.54459 0 0 0 -2.31477 0 
1652 1 7.37625 8.6996 1.99777 0 0 1 -1.39251 0 
1388 1 5.45743 7.03219 3.73236 0 0 1 -3.73937 0 
2716 1 8.76653 6.16775 6.30568 0 0 0 -2.00691 0 
3547 2 6.17019 7.54095 3.54518 -1 1 0 -2.48416 0 
1577 1 6.42276 2.06222 3.50558 0 1 0 -4.60202 0 
588 1 7.2959 4.75829 3.89227 0 0 0 -4.15492 0 
376 1 1.33628 0.572374 0.958402 0 1 0 -4.67868 0 
1420 1 6.4144 1.76831 0.445684 0 1 1 -4.4104 0 
2494 1 6.07673 3.80548 2.13564 0 0 0 -3.66166 0 
2058 1 6.26726 4.47302 4.16073 0 0 0 -4.33872 0 
416 1 0.394473 0.731268 2.84737 0 1 1 -4.56805 0 
123 1 9.33847 8.12174 4.5384 -1 0 0 -1.55031 0 
2162 1 8.88719 1.19725 5.13396 0 0 0 -4.43395 0 
2373 1 10.5588 5.20547 0.220679 0 0 0 -3.74801 0 
3840 2 6.72165 4.41988 1.98481 0 0 0 -2.6616 0 
3405 1 11.5451 5.0838 9.44346 0 0 -1 -4.51219 0 
3115 1 8.67214 2.75921 2.6889 0 0 1 -4.7175 0 
840 1 11.9607 8.02921 5.0096 -1 0 0 -2.15168 0 
2504 1 8.23377 1.79558 2.56994 0 0 0 -3.92536 0 
4092 2 6.48711 0.660646 6.64579 1 0 -1 -4.59709 0 
3815 2 5.02966 8.06943 2.33581 0 1 0 0.0735391 0 
3634 2 10.7243 5.99758 5.00684 0 0 1 -1.56734 0 
3583 2 5.34809 6.25082 1.18266 -1 0 1 -0.811941 0 
1857 1 9.42412 6.8307 7.9407 0 1 -1 -1.61793 0 
2708 1 7.73394 7.40352 8.26422 0 0 0 -3.24101 0 
2061 1 6.66136 0.944524 5.24526 0 0 0 -4.6227 0 
1752 1 5.84899 8.23701 1.11443 0 0 0 -1.86581 0 
1832 1 4.6155 7.41588 1.97884 0 0 0 -2.38197 0 
428 1 10.9103 4.78717 6.8885 -1 1 0 -3.6795 0 
3678 2 11.192 5.68059 6.80483 -1 0 0 -3.21473 0 
1529 1 6.46321 8.44113 3.67114 0 0 0 -0.205461 0 
4255 2 5.68485 4.4415 4.81076 1 0 0 -4.40235 0 
1134 1 7.07488 7.77759 9.12333 0 0 0 -1.24422 0 
3009 1 13.602 8.96648 5.82503 0 0 0 -0.166388 0 
1142 1 9.05519 9.20717 1.65856 0 0 1 0.361545 0 
716 1 9.02912 1.1542 6.14649 -1 0 1 -4.18474 0 
751 1 7.24959 7.78227 1.42228 0 0 1 -2.12119 0 
2217 1 11.6154 7.22675 4.24344 0 0 0 -2.77918 0 
3995 2 8.62717 5.97702 2.58314 -1 0 2 -2.33912 0 
2461 1 6.85764 3.94635 0.251095 0 1 1 -3.78973 0 
2513 1 5.96923 3.46796 1.0791 0 0 0 -4.05487 0 
4064 2 9.53973 6.67983 0.120912 0 0 -1 -1.4462 0 
3968 2 10.9848 6.43897 2.34667 0 0 1 -2.15222 0 
2171 1 11.2385 4.3209 0.3969 0 0 1 -4.02721 0 
38 1 9.43276 2.10946 6.27674 -1 0 0 -4.11866 0 
3903 2 4.29574 0.200859 0.0920847 0 1 -1 -4.81016 0 
220 1 10.3255 2.50532 8.04849 -1 0 0 -4.14827 0 
2524 1 9.42693 3.88409 4.71255 0 0 -1 -4.11773 0 
2224 1 7.38897 4.85065 7.54854 0 0 0 -2.99932 0 
1937 1 5.62405 0.321441 3.13483 0 0 0 -4.32281 0 
1221 1 6.06384 4.86762 2.12414 0 0 1 -3.54801 0 
4038 2 1.03524 0.861053 3.48435 0 1 0 -4.54859 0 
3612 2 1.7317 0.680619 4.80927 0 0 0 -4.60176 0 
3143 1 1.12217 1.13962 4.27264 1 0 0 -4.62722 0 
383 1 2.71471 0.525908 3.32562 0 1 1 -4.50609 0 
1805 1 3.34646 0.997288 4.42804 0 1 -1 -4.4679 0 
1326 1 2.1874 1.2333 4.24769 0 1 -1 -4.49025 0 
1304 1 2.90709 1.53846 3.54895 0 1 0 -4.33529 0 
3822 2 3.05019 0.407851 4.96694 0 1 -1 -4.63474 0 
1772 1 7.2256 6.76096 7.59711 0 0 0 -2.9752 0 
2177 1 3.7716 0.60507 3.48005 0 0 0 -4.49326 0 
2512 1 6.14461 5.05768 5.17064 0 0 0 -3.67133 0 
1557 1 4.84192 0.939746 3.54627 0 0 0 -4.30228 0 
1227 1 4.37059 0.607166 4.45114 0 0 1 -4.43322 0 
4248 2 10.2541 8.96855 6.61115 1 0 1 0.379805 0 
1226 1 8.69287 5.75597 1.20108 0 0 1 -2.77513 0 
4101 2 8.76555 3.57849 2.52407 0 0 1 -3.98924 0 
77 1 9.97474 8.44131 3.09179 -1 0 -1 -1.19912 0 
2765 1 6.4856 2.96853 8.40734 0 1 -1 -4.06775 0 
3745 2 9.79106 6.20382 1.77154 0 0 0 -2.10801 0 
3739 2 7.68778 3.11414 4.70369 0 -1 -1 -4.25157 0 
2895 1 7.99039 3.26576 1.94151 0 0 1 -3.87082 0 
75 1 9.50954 5.48961 5.95359 -1 0 0 -3.14008 0 
3068 1 9.17233 3.00141 5.30663 0 0 0 -4.31357 0 
2011 1 8.08556 0.399171 0.529894 0 0 0 -4.55151 0 
3790 2 10.7953 6.65309 4.22921 0 1 1 -1.89166 0 
1683 1 11.6637 6.17924 4.61932 0 0 0 -1.92489 0 
3828 2 12.176 5.35694 7.00873 0 0 0 -2.92349 0 
1079 1 13.8927 8.97101 0.418088 0 -1 0 0.192562 0 
2246 1 9.35351 0.0726772 4.27945 0 1 0 -4.42544 0 
4242 2 9.76237 0.625517 0.448892 0 0 1 -4.5974 0 
909 1 1.5065 2.09714 4.07739 0 1 0 -4.45493 0 
709 1 2.10436 3.35294 4.39176 0 0 0 -4.16524 0 
1111 1 1.88461 2.51703 4.96421 0 0 0 -4.50697 0 
1566 1 2.60965 3.16072 3.34769 0 0 0 -4.23867 0 
3854 2 3.2653 2.00322 4.38705 1 0 -2 -4.44232 0 
215 1 2.48697 2.37826 4.08168 0 0 0 -4.4499 0 
2149 1 3.47316 2.78086 4.04051 0 0 0 -4.30858 0 
704 1 2.83673 2.94375 5.02426 0 0 0 -4.32687 0 
2440 1 2.76459 1.79876 4.93867 0 0 1 -4.61532 0 
1916 1 4.02423 1.65896 3.65645 0 1 1 -4.22696 0 
1071 1 7.46764 5.97031 8.1934 0 0 0 -2.51201 0 
1667 1 4.92377 2.34051 4.85455 0 0 0 -4.21748 0 
1624 1 4.35466 2.7392 3.40116 0 0 -1 -4.24248 0 
3044 1 4.17127 1.59617 4.73861 1 0 0 -4.27974 0 
1678 1 4.94495 2.07527 3.81596 0 0 0 -4.24655 0 
3717 2 4.21459 2.37291 4.24674 0 1 1 -4.28736 0 
2040 1 9.97923 8.34933 7.20939 0 0 0 0.140165 0 
967 1 9.75303 7.24002 1.76482 0 0 1 -1.31188 0 
3098 1 8.57148 5.07842 5.69371 0 0 -1 -4.0423 0 
3956 2 11.9325 9.27121 1.87388 0 -1 0 0.737061 0 
1367 1 7.86338 6.46292 9.23475 0 0 -1 -3.52467 0 
3281 1 7.12901 3.16969 9.31048 0 0 0 -4.012 0 
541 1 8.05667 9.12884 1.12616 0 0 0 1.13385 0 
991 1 5.70444 9.37161 9.39288 0 0 0 1.6305 0 
407 1 10.8236 5.50421 8.86276 -1 1 0 -4.48235 0 
2098 1 8.06398 0.831305 6.63277 0 0 0 -4.36774 0 
3632 2 12.0081 6.12881 7.93978 0 0 0 -1.89929 0 
532 1 8.82075 0.913394 2.90255 0 0 0 -4.55399 0 
1174 1 10.4869 6.37776 0.40864 0 0 1 -3.74271 0 
3615 2 10.1437 7.85322 2.18468 0 0 1 -2.48651 0 
3712 2 7.64669 9.20117 7.74272 0 0 0 -1.90607 0 
1769 1 10.8427 3.13089 7.52207 0 0 0 -4.18819 0 
2622 1 8.40431 0.263179 5.70815 0 0 -1 -4.59896 0 
1874 1 2.26588 4.07961 3.67636 0 1 0 -4.12001 0 
3157 1 11.6536 4.47709 3.16526 0 0 0 -4.88174 0 
787 1 3.63298 4.62788 4.81183 0 0 0 -4.00661 0 
648 1 3.75737 3.60031 4.89975 0 0 0 -4.0837 0 
2105 1 2.80934 4.0048 4.7933 0 0 0 -4.04517 0 
3864 2 3.02598 3.60911 3.98365 0 1 -1 -4.11602 0 
1532 1 3.17039 4.51486 3.93388 0 0 0 -3.98237 0 
1143 1 3.98195 3.76924 3.77938 0 0 1 -4.0647 0 
2589 1 7.61507 8.38846 8.16271 0 0 -1 -0.247283 0 
1193 1 4.63541 3.25072 4.38409 0 0 1 -4.13622 0 
3006 1 4.70206 4.31394 4.70095 1 0 0 -3.96288 0 
3780 2 4.82409 3.54304 3.58037 0 0 2 -4.07768 0 
4165 2 7.8745 8.74932 4.52646 0 0 1 -1.74808 0 
2528 1 4.85311 4.40421 3.60286 0 0 0 -3.97509 0 
1544 1 5.30825 0.262398 4.24877 0 0 0 -4.50032 0 
652 1 10.5241 3.46492 5.86483 -1 0 0 -3.93325 0 
1975 1 6.10038 0.9361 4.04023 0 0 1 -4.63037 0 
1708 1 6.45034 2.56033 7.19933 0 0 0 -4.16258 0 
4304 2 6.76937 8.17575 8.35701 0 1 0 -3.92066 0 
1669 1 7.94726 6.09908 2.04623 0 0 1 -3.07949 0 
1808 1 9.62993 6.79874 8.91861 0 0 -1 -1.15206 0 
3406 1 7.72845 4.15147 5.54976 0 1 0 -4.02021 0 
317 1 7.92114 3.46589 2.99133 -1 1 0 -3.84599 0 
216 1 8.2528 3.44539 7.9844 -1 0 0 -4.14778 0 
4119 2 8.00364 3.12792 7.25948 0 0 0 -3.97501 0 
2849 1 7.57179 1.07416 1.3492 0 1 1 -4.54645 0 
3943 2 10.1003 6.39789 7.52741 0 0 0 -2.38983 0 
3099 1 11.8566 6.39025 3.62562 0 0 0 -2.95965 0 
2218 1 9.99169 9.03763 8.16822 0 -1 0 -0.0455676 0 
1098 1 9.49372 9.41142 6.29786 0 0 0 -0.693448 0 
1305 1 1.71042 0.40369 3.63845 0 1 0 -4.58099 1 
4028 2 9.82436 2.6328 0.0363159 -1 1 0 -3.51478 0 
2944 1 12.7677 7.53214 4.5014 0 0 0 -1.87426 0 
268 1 0.556335 0.125046 0.389301 0 1 1 -4.63354 1 
3694 2 4.542 0.109725 3.69254 0 1 1 -4.60029 0 
832 1 3.03636 5.99502 1.94824 0 0 0 -2.39153 0 
3600 2 4.04855 6.1805 4.35748 0 0 0 -3.97977 0 
645 1 3.56147 6.89722 1.56798 0 0 1 -0.751049 0 
1445 1 3.27695 6.46335 4.22836 0 0 1 -3.37448 0 
4100 2 3.07073 5.21384 4.58188 1 0 1 -3.84434 0 
2108 1 3.70107 5.50448 4.03246 0 0 0 -3.92912 0 
3798 2 4.10615 4.76781 4.10855 0 1 -1 -4.01405 0 
1095 1 6.07881 6.21911 4.70039 0 0 0 -2.81425 0 
2302 1 5.40892 5.09015 4.24028 0 0 0 -4.15337 0 
3912 2 5.5373 2.95059 4.53741 0 1 0 -4.08467 0 
2037 1 4.67255 5.44224 3.58782 0 0 -1 -3.99058 0 
1876 1 5.10611 6.14317 4.24232 0 0 0 -3.17622 0 
2474 1 8.93529 7.36538 3.95591 0 0 0 -1.99841 0 
4247 2 6.1649 3.43008 5.70677 1 0 1 -4.17132 0 
1869 1 1.18249 0.481597 5.51883 0 1 0 -4.6175 0 
3432 1 11.3805 5.80253 2.80212 0 0 1 -2.90517 0 
1986 1 8.37219 8.18467 1.53235 0 0 1 -2.11902 0 
373 1 10.671 8.27709 8.14255 -1 0 -1 -0.578688 0 
3014 1 10.9396 4.61948 5.83727 0 0 -1 -3.5712 0 
3239 1 9.41242 9.22565 2.7069 0 0 1 0.602621 0 
669 1 10.8613 8.35712 2.51437 0 0 1 1.08344 0 
4213 2 9.21836 4.85773 2.48878 0 0 0 -4.19669 0 
1862 1 12.8988 8.37507 6.38516 0 0 -1 0.0236495 0 
2687 1 12.3113 5.6076 2.34726 0 0 0 -3.43269 0 
3391 1 12.7197 6.2856 1.04074 0 0 1 -4.80773 0 
3263 1 9.56364 3.36337 6.28033 0 0 1 -4.11739 0 
3836 2 13.5792 8.03202 5.86787 -1 0 0 -2.1067 0 
2051 1 9.74644 3.04657 0.794134 0 0 1 -4.19832 0 
1275 1 4.52916 6.97427 4.13827 0 0 0 -0.533867 0 
3196 1 10.5953 5.59962 6.15675 0 0 0 -3.00735 0 
2015 1 10.7407 4.86108 8.0999 0 0 0 -3.71422 0 
4106 2 3.95511 7.21991 6.76796 1 0 -1 -2.97898 0 
3038 1 11.66 4.49255 1.3991 0 0 0 -3.88956 0 
23 1 4.39261 6.50405 5.09905 0 0 0 -3.26576 0 
3041 1 4.08152 6.33137 3.45248 1 0 -1 -2.97386 0 
1705 1 7.10123 8.24831 4.94789 0 0 1 -0.0013231 0 
177 1 5.93742 7.81751 4.32832 0 0 0 -2.0099 0 
2685 1 6.01671 6.12414 3.53688 0 0 0 -3.27853 0 
1453 1 6.32976 7.08639 5.22787 0 0 0 -2.29918 0 
2861 1 6.48882 6.97658 4.0617 0 0 0 -2.98605 0 
3856 2 5.09141 8.02484 0.645928 0 0 1 -0.146704 0 
2485 1 13.6924 8.76782 3.13917 0 0 1 -0.975155 0 
2701 1 6.41403 4.0209 5.14657 0 0 0 -4.26823 0 
1877 1 8.03531 4.56075 8.34632 0 0 0 -4.06698 0 
1623 1 5.89047 3.89596 3.24748 0 0 0 -3.81163 0 
2515 1 8.71462 5.24172 6.811 0 0 -1 -3.15202 0 
3985 2 8.06365 3.93541 1.38808 1 0 1 -4.24714 0 
2185 1 9.76771 4.74864 3.24244 0 0 1 -3.42592 0 
2734 1 11.1095 8.86021 1.05926 0 0 1 0.0594592 0 
28 1 9.93216 4.23946 8.42966 -1 0 -1 -3.82513 0 
4187 2 10.2981 5.74758 2.82967 0 0 1 -3.70709 0 
487 1 5.60418 7.96522 3.04583 0 0 0 0.785938 0 
1726 1 7.31328 7.04889 0.306324 0 0 1 -4.00803 0 
1135 1 7.79009 6.04888 6.05436 0 0 0 -3.81237 0 
2618 1 10.3565 3.36183 2.19455 0 0 0 -4.32388 0 
2031 1 5.33639 2.16566 7.43351 0 0 0 -4.34051 0 
665 1 4.86793 7.98979 3.92727 0 0 1 -0.914045 0 
3972 2 12.4006 6.2297 6.35033 0 0 -2 -0.450478 0 
730 1 6.5328 9.39762 3.03737 0 0 1 0.525338 0 
1610 1 13.5365 8.14259 4.94249 0 0 0 -0.796319 0 
1878 1 7.46026 8.64141 3.0956 0 0 1 0.333468 0 
3071 1 5.46323 7.67181 5.58765 1 0 0 -1.19542 0 
1714 1 13.4747 9.33595 8.15648 0 0 0 -0.563524 0 
1661 1 7.66733 6.24909 4.2836 0 0 0 -3.73384 0 
2929 1 6.28439 8.78314 4.59369 0 0 1 -1.48058 0 
3286 1 4.0571 8.05037 7.10576 1 0 -1 -1.34897 0 
568 1 7.40264 9.27159 5.07538 0 0 -1 -0.984122 0 
2447 1 7.00902 7.4913 3.2506 0 0 0 -1.7475 0 
2451 1 8.1918 8.98821 3.77661 0 0 1 -0.786962 0 
747 1 5.49938 0.499317 1.63887 0 0 1 -4.35209 0 
137 1 10.1668 8.43754 4.09314 -1 0 0 -1.69614 0 
1846 1 5.81502 2.18822 6.46955 0 1 -1 -4.1922 0 
1548 1 7.20471 5.24341 2.15178 0 0 0 -3.33186 0 
1202 1 5.47691 3.04693 0.20702 0 0 1 -4.25589 0 
1591 1 6.93861 5.07795 0.469615 0 0 0 -3.07603 0 
3666 2 8.83776 9.52162 3.95301 0 1 1 1.19351 0 
4047 2 10.0612 3.0797 4.03304 0 1 -3 -4.17161 0 
2560 1 7.99962 4.00855 3.87324 0 0 1 -4.38464 0 
734 1 8.91852 6.12009 8.66278 0 0 0 -3.44922 0 
2544 1 12.7109 8.71445 5.2559 0 -1 0 -0.513682 0 
1894 1 12.6641 8.36765 3.21931 0 0 1 -0.794972 0 
1696 1 12.0511 8.97135 3.73248 0 0 1 -1.12555 0 
3197 1 10.1407 4.88778 2.34557 0 0 0 -4.07133 0 
4186 2 5.13525 1.25698 1.35278 0 1 1 -4.31944 0 
3610 2 3.71514 0.041439 6.75228 0 0 0 -4.5929 0 
55 1 8.99101 0.155686 2.23705 -1 0 0 -5.31636 0 
417 1 1.29188 1.27108 6.13132 0 1 0 -4.45002 0 
2048 1 1.58078 1.47722 5.12438 0 0 -1 -4.48561 0 
4229 2 5.7303 2.25903 2.02822 0 0 -1 -4.25148 0 
2201 1 2.45278 0.858812 5.38493 0 0 0 -4.53144 0 
880 1 2.07512 0.554561 6.33725 0 1 0 -4.51193 0 
1710 1 3.56534 1.12327 5.45367 0 0 1 -4.47877 0 
748 1 7.44805 8.16875 3.97755 0 0 0 -1.99185 0 
286 1 2.94584 1.1228 6.47671 0 1 0 -4.50534 0 
1310 1 2.24693 1.70987 5.97128 0 1 0 -4.53847 0 
1036 1 4.70028 1.00845 5.39399 0 0 1 -4.46458 0 
1291 1 4.13294 0.722395 6.32002 0 1 0 -4.50151 0 
1128 1 6.94068 3.86869 6.1914 0 0 0 -4.10097 0 
2493 1 4.94436 1.41306 6.38128 0 0 0 -4.41028 0 
303 1 5.43954 2.17109 2.82191 0 1 0 -4.03882 0 
2571 1 9.02574 6.55927 2.01776 0 0 0 -1.20682 0 
1573 1 9.30349 3.60412 7.94142 0 0 0 -4.14399 0 
238 1 6.11541 3.02742 2.83267 -1 0 1 -3.96419 0 
3142 1 6.35492 1.46919 7.07312 0 0 1 -4.50399 0 
570 1 10.1497 5.58269 1.12113 0 0 0 -3.60209 0 
1870 1 7.9499 0.86705 3.51134 0 1 0 -4.34053 0 
2204 1 7.74109 1.72814 8.34671 0 0 0 -4.35763 0 
263 1 7.97692 1.17649 5.63072 -1 1 0 -4.33528 0 
2527 1 9.25921 5.27529 0.450539 0 0 0 -4.01016 0 
2388 1 8.85765 0.230089 9.47323 0 1 -1 -4.73655 0 
2922 1 12.8835 8.48958 4.25458 0 0 0 -2.42226 0 
1828 1 13.6056 9.29351 2.15229 0 0 0 -0.173992 0 
4219 2 9.14911 2.47784 7.05028 0 0 0 -4.13194 0 
2913 1 11.3443 6.39451 6.0365 0 1 0 -2.33664 0 
4083 2 11.1453 8.02323 9.20024 0 0 -2 -1.18443 0 
3882 2 11.032 3.7794 9.44299 0 0 1 -3.79538 0 
3727 2 1.83518 2.32108 6.47469 0 1 -1 -4.29103 0 
1791 1 10.1224 9.35998 3.57402 0 0 0 0.796894 0 
2093 1 1.25819 2.29244 5.74714 0 0 0 -4.40719 0 
1082 1 2.30879 2.81666 5.87912 0 0 -1 -4.34141 0 
1117 1 3.17714 2.2459 5.87167 0 0 0 -4.52306 0 
1446 1 3.82475 2.5157 5.00727 0 1 0 -4.34629 0 
2097 1 4.23978 1.91177 5.74004 0 0 0 -4.50027 0 
3688 2 5.08953 2.43804 5.84402 0 0 2 -4.27321 0 
4301 2 4.09131 2.70701 6.08453 0 0 0 -4.22428 0 
3980 2 7.41338 3.24161 0.455395 -1 0 0 -4.62863 0 
708 1 8.80526 8.38943 0.234808 0 0 1 -1.29172 0 
2681 1 7.14812 6.81789 5.79811 0 0 1 -3.1699 0 
446 1 5.87065 1.39356 8.01658 0 1 0 -4.47484 0 
1087 1 7.03768 3.5837 2.38649 0 0 0 -3.72723 0 