ITEM: TIMESTEP
240000
ITEM: NUMBER OF ATOMS
4320
ITEM: BOX BOUNDS xy xz yz pp pp pp 
0 28.965 9.655
0 19.31 0
0 9.655 0
ITEM: ATOMS id type x y z ix iy iz msd dx dy dz dx2 dy2 dz2 
3870 2 9.91111 4.76718 0.783338 0 -1 0 16.9982 -4.11097 0.200314 -0.240777 16.9001 0.0401258 0.0579736 
701 1 7.21904 1.54288 2.8729 0 0 0 21.4045 -4.59511 -0.535556 0.0511313 21.1151 0.286821 0.00261441 
2399 1 4.75071 8.43252 1.38804 0 0 0 1.87854 0.666556 -1.19224 0.113124 0.444297 1.42144 0.0127971 
3119 1 7.33407 2.72718 7.85238 0 0 0 17.4592 -4.1476 -0.503235 -0.058066 17.2026 0.253246 0.00337166 
1 1 8.39027 4.72789 1.05757 0 0 0 22.4623 -4.69427 0.652693 0.0135948 22.0361 0.426008 0.000184817 
1737 1 7.2948 7.18177 4.81382 0 0 0 6.69429 -2.52288 0.366713 0.441464 6.36492 0.134478 0.19489 
3767 2 10.9154 7.27841 0.812656 0 0 2 5.80467 -1.98162 1.36892 0.062525 3.92683 1.87393 0.00390938 
2991 1 10.8534 7.61585 7.20741 0 0 -1 4.04774 -1.70893 -0.246062 -1.03284 2.92044 0.0605465 1.06675 
2092 1 12.7602 6.23583 3.02005 0 0 0 6.6886 -2.58587 -0.0245826 0.0352992 6.68675 0.000604306 0.00124604 
3379 1 11.7453 6.26148 1.79317 0 0 0 7.61572 -2.55416 -0.850448 -0.607214 6.52375 0.723261 0.368709 
1585 1 10.2713 5.28264 5.18348 0 0 0 15.2379 -3.8062 -0.584865 0.639299 14.4872 0.342067 0.408704 
3529 2 11.0494 3.45892 5.08015 -1 1 -1 15.1994 -3.83609 -0.691481 -0.0753467 14.7156 0.478146 0.00567712 
664 1 1.5764 0.114324 8.40278 0 0 0 23.2754 -4.8163 0.210785 0.185084 23.1968 0.0444302 0.0342561 
529 1 10.375 2.21583 2.81752 -1 0 1 16.9425 -4.07246 -0.5969 -0.0362185 16.5849 0.35629 0.00131178 
1944 1 4.64854 9.16124 2.04005 0 0 0 2.08445 1.33016 -0.495701 -0.263444 1.76933 0.24572 0.0694027 
3203 1 0.926377 1.39413 0.391588 1 0 0 20.6321 -4.53281 0.274205 0.102762 20.5464 0.0751882 0.0105601 
1264 1 1.66509 1.52694 1.23691 0 1 0 19.9062 -4.4545 0.157637 0.196721 19.8426 0.0248495 0.038699 
756 1 7.69477 7.70547 5.66709 0 0 1 4.23724 -1.13667 -1.70443 0.200336 1.29203 2.90508 0.0401343 
3758 2 1.79067 0.757232 1.73904 0 0 1 21.1802 -4.59558 0.0821964 0.232707 21.1193 0.00675625 0.0541524 
663 1 2.41869 0.802673 1.15351 0 0 0 21.0597 -4.58509 0.0137217 0.190931 21.0231 0.000188284 0.0364546 
963 1 2.07681 1.3777 0.27833 0 1 1 21.5146 -4.63369 0.119312 0.171135 21.4711 0.0142354 0.0292871 
4222 2 2.07825 0.503497 0.457024 1 0 -1 21.1829 -4.59628 0.120499 0.206524 21.1258 0.0145201 0.0426522 
899 1 8.30077 7.9607 3.41012 0 0 0 6.32443 -1.72552 -1.08522 -1.47285 2.97743 1.1777 2.1693 
1252 1 2.89605 0.390118 0.244963 0 1 1 20.9267 -4.57054 -0.0722363 0.177947 20.8898 0.00521808 0.0316651 
2154 1 3.34276 0.816439 1.70852 0 0 1 21.0097 -4.57227 -0.111811 0.302635 20.9057 0.0125018 0.0915882 
4078 2 3.71225 1.29227 0.15138 0 1 0 18.7826 -4.32653 0.251889 -0.0156691 18.7189 0.0634482 0.00024552 
1783 1 4.91672 0.396098 0.82729 0 1 0 20.255 -4.49469 -0.207224 -0.0987654 20.2023 0.0429416 0.00975461 
1177 1 4.32771 1.44106 0.958368 0 0 1 19.0848 -4.36736 0.0483776 0.0928514 19.0738 0.00234039 0.00862139 
2805 1 3.78126 0.512605 0.745675 1 1 1 21.6701 -4.65197 0.0823592 0.15018 21.6408 0.00678304 0.0225539 
4061 2 6.64857 4.67922 5.81408 0 1 1 13.9639 -2.95395 -2.13007 -0.837179 8.7258 4.53718 0.700868 
4319 2 5.63042 2.85225 6.95552 1 0 0 17.1556 -4.13782 -0.174721 0.0592716 17.1215 0.0305274 0.00351312 
2237 1 9.71478 7.46767 2.84727 0 -1 0 2.96116 -1.32665 -0.966164 0.517398 1.75999 0.933474 0.267701 
3415 1 8.29082 6.86965 5.77423 0 1 0 9.46583 -3.0274 -0.347713 0.423996 9.16515 0.120905 0.179773 
1861 1 8.53931 8.98261 6.61873 0 0 0 0.799844 0.443181 -0.609452 0.481667 0.196409 0.371431 0.232003 
1707 1 7.6546 5.70538 7.0921 0 0 -1 9.95391 -2.38096 -1.67252 -1.21968 5.66897 2.79731 1.48763 
3889 2 6.47181 8.12512 1.75303 0 -1 1 3.51636 -1.17903 -1.3771 0.479399 1.39012 1.89642 0.229824 
4118 2 5.69085 9.28712 1.45939 1 1 1 0.375128 -0.0896867 -0.325227 -0.511187 0.0080437 0.105772 0.261312 
2059 1 7.7161 1.91285 3.80435 0 0 0 19.2187 -4.35862 -0.453997 -0.122595 18.9976 0.206113 0.0150296 
2730 1 8.82789 3.17688 8.8589 0 0 0 16.3049 -4.00677 -0.348907 -0.359118 16.0542 0.121736 0.128966 
3611 2 6.67735 2.01813 6.32995 0 0 -1 19.8593 -4.43578 -0.408867 -0.126292 19.6761 0.167173 0.0159496 
2935 1 10.3776 1.58039 6.59342 0 1 -1 19.6958 -4.40646 -0.517906 -0.103435 19.4169 0.268227 0.0106987 
128 1 8.88334 4.20742 8.77551 -1 0 -1 15.8596 -3.96148 -0.361408 -0.18898 15.6933 0.130616 0.0357135 
245 1 5.50589 9.39653 4.87582 0 0 0 1.78065 -0.925474 0.0345856 -0.960704 0.856503 0.00119616 0.922952 
153 1 3.44225 6.50921 8.00566 0 0 0 9.58822 -3.07015 -0.183201 -0.358912 9.42584 0.0335625 0.128818 
2721 1 12.3624 7.85105 2.38081 0 0 0 1.37468 -1.15089 0.116904 0.190953 1.32455 0.0136665 0.0364632 
2161 1 11.0895 6.25242 8.03853 0 0 0 5.03883 -2.05781 -0.573261 0.689657 4.23457 0.328628 0.475626 
3793 2 10.3822 3.42308 6.71872 0 1 -1 16.2754 -3.99404 -0.564195 -0.068311 15.9524 0.318316 0.0046664 
149 1 9.5265 0.969428 1.91815 -1 0 0 19.9593 -4.46375 -0.140649 -0.120217 19.9251 0.0197822 0.0144521 
671 1 9.92722 0.799952 7.4003 -1 0 0 20.4858 -4.48003 -0.644283 0.00587687 20.0706 0.415101 3.45376e-05 
3626 2 1.56938 2.05204 0.136246 0 0 0 20.0674 -4.47366 0.229836 0.0295633 20.0137 0.0528244 0.00087399 
1535 1 10.0174 9.27196 0.95305 0 0 1 1.1189 -0.536319 -0.87989 -0.238868 0.287638 0.774207 0.0570581 
3986 2 10.6338 2.31126 7.24206 0 0 -1 17.3589 -4.07608 -0.797908 -0.328347 16.6145 0.636657 0.107812 
1055 1 3.25388 1.53922 0.919944 0 0 0 18.5003 -4.29355 -0.127461 0.222564 18.4346 0.0162464 0.0495346 
3784 2 2.44029 1.75793 1.17938 0 0 -1 19.1744 -4.37665 0.0156904 -0.138318 19.1551 0.00024619 0.0191319 
629 1 2.17863 2.46636 0.647547 0 0 0 19.8893 -4.45609 0.175593 0.0424326 19.8567 0.030833 0.00180053 
1563 1 3.12159 2.57707 1.28607 0 0 0 18.7071 -4.32458 -0.0365178 0.0618377 18.702 0.00133355 0.00382391 
576 1 3.98574 3.08108 0.562516 0 0 0 17.1759 -4.14227 -0.0704302 0.112046 17.1584 0.00496041 0.0125542 
1632 1 3.86226 1.74442 1.85347 0 0 0 18.2226 -4.25721 -0.162019 0.269277 18.1238 0.0262501 0.0725103 
3737 2 3.9376 2.20335 1.0087 1 1 0 18.8588 -4.33604 -0.0906012 0.222137 18.8012 0.00820858 0.0493448 
3175 1 4.84147 2.31723 0.811055 1 0 1 18.5286 -4.30306 -0.0176988 0.10932 18.5164 0.000313248 0.0119509 
1395 1 4.30104 2.7604 1.59649 0 1 1 17.2207 -4.14572 -0.129856 0.130004 17.187 0.0168626 0.0169009 
3814 2 4.67406 2.84616 0.0114048 -1 0 2 17.6769 -4.20377 -0.0657873 -0.0297135 17.6717 0.00432797 0.00088289 
1104 1 4.01408 2.08083 0.19478 0 0 0 18.5557 -4.30178 0.112734 0.194271 18.5053 0.0127089 0.0377412 
1604 1 8.75535 1.9471 3.42174 0 0 0 17.718 -4.19406 -0.269591 0.234852 17.5901 0.0726792 0.0551554 
4201 2 8.9155 7.42211 1.75633 0 -1 0 3.18807 -1.24297 -1.15857 -0.548469 1.54498 1.34227 0.300818 
2029 1 6.45561 1.92002 5.48793 0 0 0 19.3829 -4.391 -0.287555 -0.139049 19.2809 0.0826879 0.0193345 
4209 2 2.88285 5.65616 5.58738 1 0 0 15.434 -3.9193 0.150032 -0.224872 15.3609 0.0225095 0.0505673 
723 1 6.7255 0.214272 5.8952 0 0 0 21.3739 -4.60945 -0.356222 0.00367209 21.247 0.126894 1.34842e-05 
2275 1 9.85117 8.50736 0.186681 0 0 1 3.78165 0.406128 -1.72552 -0.799563 0.16494 2.97741 0.639301 
1793 1 9.12367 6.18604 5.32035 0 0 0 9.98093 -2.65745 -1.13827 -1.27406 7.06202 1.29567 1.62324 
3961 2 7.98311 1.74256 6.37205 0 0 0 19.263 -4.36301 -0.476148 0.0221252 19.0358 0.226717 0.000489523 
3716 2 7.75331 1.74754 1.76681 0 0 0 17.8456 -4.21402 -0.243393 -0.168614 17.7579 0.0592401 0.0284308 
146 1 3.11161 5.78422 9.64313 0 0 -1 11.3517 -3.30644 -0.269127 -0.588804 10.9325 0.0724295 0.34669 
2233 1 11.2051 4.83809 2.3173 0 0 1 16.0209 -3.92054 -0.439734 -0.675971 15.3706 0.193366 0.456936 
3938 2 8.87377 4.52026 5.10364 0 0 0 28.6557 -4.60333 -1.24482 2.43218 21.1907 1.54958 5.91548 
3341 1 10.8342 3.38284 4.25262 0 0 0 17.5825 -4.14934 -0.604362 -0.0161386 17.217 0.365253 0.000260454 
4246 2 8.71039 7.35549 7.81506 0 0 -1 16.5902 -0.389408 -4.05316 -0.10237 0.151639 16.4281 0.0104797 
1722 1 3.41255 0.165087 2.61341 0 0 1 20.9937 -4.57861 -0.00750449 0.173072 20.9637 5.63174e-05 0.0299539 
650 1 11.8225 5.19235 4.36049 0 0 0 11.5066 -3.33124 -0.518145 -0.37541 11.0972 0.268474 0.140932 
1243 1 6.02182 9.41976 7.32665 0 0 0 1.67549 0.722574 -0.946924 0.506663 0.522113 0.896665 0.256707 
2666 1 10.1821 2.41963 1.71552 0 0 0 16.4883 -4.04409 -0.347481 -0.113423 16.3547 0.120743 0.0128647 
810 1 3.01588 3.44773 0.653324 0 1 1 16.0493 -4.00234 0.141193 0.103131 16.0188 0.0199355 0.0106361 
307 1 5.46616 9.6209 3.05429 0 0 0 0.923475 0.0864747 0.75856 0.583596 0.00747788 0.575413 0.340584 
981 1 4.12783 4.07629 0.789606 0 1 0 10.3198 -3.16662 -0.178204 0.51044 10.0275 0.0317565 0.260549 
3546 2 3.14138 4.32115 0.324459 0 0 1 15.2855 -3.83171 0.18025 -0.755667 14.682 0.03249 0.571033 
2081 1 3.60819 3.50054 1.57045 0 0 0 16.8916 -4.10237 -0.169235 0.183057 16.8294 0.0286406 0.0335097 
2050 1 2.41919 3.49022 1.56621 0 0 0 16.8657 -4.10585 0.037067 0.0797749 16.858 0.00137396 0.00636403 
1503 1 5.87881 7.97631 8.7499 0 0 -1 2.45164 -1.16433 -0.576695 -0.87373 1.35566 0.332577 0.763404 
639 1 4.93574 3.44211 1.02291 0 0 0 16.4641 -4.05525 -0.00142141 0.13787 16.4451 2.02041e-06 0.019008 
1153 1 5.32957 4.35289 1.44283 0 0 0 16.8913 -4.08355 -0.286411 0.365882 16.6754 0.0820313 0.13387 
1946 1 4.9204 4.66381 0.411283 0 1 0 12.1632 -3.46377 0.338138 -0.226261 11.9977 0.114337 0.0511941 
45 1 6.18148 3.56245 6.97636 0 0 -1 17.2534 -4.14502 -0.268614 -0.0024258 17.1812 0.0721537 5.8845e-06 
3844 2 7.60905 4.36014 3.11501 0 0 0 12.991 -3.59255 -0.213403 0.197462 12.9064 0.045541 0.0389914 
2414 1 5.91187 1.46732 1.67107 0 1 1 18.5696 -4.30425 -0.201182 -0.0500814 18.5266 0.0404741 0.00250815 
140 1 5.48212 3.7953 4.18036 0 0 1 16.8904 -4.08459 -0.452995 0.0365484 16.6839 0.205204 0.00133579 
1216 1 8.50417 8.62822 2.68658 0 0 0 1.69651 -0.485605 -0.88534 -0.822722 0.235813 0.783827 0.676871 
2036 1 7.98682 3.77147 8.96106 0 0 -1 15.2248 -3.81498 -0.67516 -0.463523 14.5541 0.455841 0.214854 
1691 1 6.62018 0.997729 1.0441 0 0 1 19.6796 -4.42225 -0.351118 -0.00602576 19.5563 0.123284 3.63098e-05 
3966 2 7.47941 6.16813 0.430115 0 -1 0 15.9798 -3.83429 0.613676 -0.949414 14.7018 0.376598 0.901387 
2198 1 9.2788 5.14179 8.61064 0 0 0 13.4837 -3.63618 -0.507719 -0.0642267 13.2218 0.257778 0.00412507 
2630 1 9.12338 6.5695 3.13216 0 0 0 16.7092 -4.07453 0.250114 -0.211749 16.6018 0.062557 0.0448377 
2579 1 10.8304 5.75378 4.10226 0 0 0 7.26484 -2.52967 -0.907356 -0.205741 6.39922 0.823294 0.0423293 
749 1 10.5134 7.09611 8.01511 0 0 0 2.65336 -1.5254 0.181869 0.541693 2.32685 0.0330762 0.293431 
116 1 10.4734 4.09086 5.03269 -1 0 -1 13.0599 -3.60926 -0.00464187 0.181947 13.0267 2.1547e-05 0.0331046 
808 1 11.3724 7.60617 8.49067 0 0 0 1.17848 -0.772618 -0.345435 -0.679864 0.596938 0.119326 0.462215 
1743 1 8.57194 2.28554 1.71222 0 0 1 17.071 -4.09246 -0.340099 -0.455182 16.7482 0.115667 0.207191 
3305 1 10.7368 8.24077 5.16383 0 0 0 2.81621 -1.52181 -0.678956 -0.198334 2.3159 0.460981 0.0393363 
2062 1 9.77033 1.06644 4.4837 0 0 0 21.6952 -4.54707 -0.50679 -0.873213 20.6758 0.256836 0.762501 
1089 1 2.46454 0.124816 4.32406 0 0 0 19.9161 -4.46179 0.0897393 0.0219199 19.9076 0.00805314 0.000480482 
655 1 3.749 5.83499 1.11691 0 0 0 4.6013 -2.08627 -0.297498 -0.400362 4.3525 0.0885049 0.16029 
527 1 1.0858 2.10495 1.89621 0 0 0 18.4506 -4.29284 0.0692538 0.131854 18.4285 0.00479609 0.0173854 
2653 1 4.47391 4.95851 1.34202 0 0 1 9.21968 -3.02612 0.0752512 0.237889 9.15743 0.00566275 0.0565911 
537 1 3.58273 4.99136 0.525322 0 0 0 8.65955 -2.91776 0.0301427 -0.381162 8.51335 0.000908583 0.145285 
80 1 4.78553 5.77446 0.741243 0 0 -1 6.90263 -2.6219 -0.140849 -0.0918371 6.87436 0.0198384 0.00843406 
4073 2 4.4766 4.69541 2.17365 0 0 0 16.4506 -3.65866 -1.59243 0.727312 13.3858 2.53583 0.528983 
3679 2 4.62766 5.80789 1.76254 0 1 2 13.8815 -3.45268 0.62515 1.25287 11.921 0.390813 1.56967 
1626 1 6.30817 7.24041 0.0485414 0 0 0 11.1283 -3.14137 1.122 -0.034618 9.86818 1.25889 0.0011984 
2357 1 5.90008 5.24962 0.586007 0 0 0 9.61982 -3.07956 0.0995208 0.355272 9.4837 0.00990439 0.126218 
2072 1 6.97444 6.2683 2.30129 0 0 0 9.78854 -3.08155 -0.313493 0.440807 9.49595 0.0982781 0.194311 
2497 1 5.27226 5.43809 9.45767 0 0 -1 12.3421 -3.3122 -0.471778 -1.07184 10.9707 0.222575 1.14883 
1215 1 5.45464 5.4384 1.49578 0 0 1 9.91222 -3.11721 0.436719 0.0672011 9.71699 0.190723 0.00451599 
2665 1 6.65652 6.24187 0.533836 0 0 1 12.8409 -3.56681 -0.297748 -0.173383 12.7221 0.0886537 0.0300616 
3455 1 8.13703 5.41089 8.92025 0 0 0 12.6922 -3.4978 -0.675919 -0.0271368 12.2346 0.456867 0.000736406 
4019 2 6.46719 7.89065 6.81143 0 0 1 21.3982 -4.60351 0.374411 -0.256233 21.1923 0.140183 0.0656553 
2112 1 6.45318 2.06361 2.46787 0 0 0 16.7959 -4.09175 -0.199413 -0.117235 16.7424 0.0397655 0.0137439 
3338 1 8.43248 6.84832 4.69018 0 0 0 7.20455 -2.55066 0.630088 -0.549229 6.50589 0.397011 0.301652 
3548 2 7.3373 1.5207 5.23558 0 1 0 19.266 -4.33894 -0.656464 -0.0927758 18.8264 0.430945 0.00860734 
3255 1 13.2994 8.41874 8.69381 0 0 0 3.23882 -1.70989 0.222553 -0.515333 2.92372 0.04953 0.265568 
2555 1 8.55912 4.37952 2.92087 0 0 0 13.0038 -3.57449 -0.458095 0.130278 12.777 0.209851 0.0169722 
3541 2 11.7538 9.54794 6.08471 0 0 -2 9.3536 3.00398 0.567242 -0.0891344 9.02389 0.321763 0.00794493 
1724 1 8.08242 5.48364 0.323981 0 0 1 16.2965 -3.95438 -0.4615 -0.668179 15.6371 0.212982 0.446463 
1991 1 4.69363 0.345681 9.0078 0 0 -1 21.8692 -4.67209 0.109217 0.169841 21.8285 0.0119284 0.0288458 
4013 2 8.9583 5.45376 9.32507 0 0 -1 11.3474 -3.35292 0.323139 -0.0308229 11.242 0.104419 0.00095005 
2111 1 8.9376 5.42706 3.26045 0 0 0 14.6638 -3.7345 -0.344335 0.773816 13.9465 0.118567 0.598791 
3775 2 8.14866 1.46116 7.44653 0 0 1 19.78 -4.4241 -0.452502 -0.050752 19.5727 0.204758 0.00257576 
3738 2 9.87726 2.67306 5.71466 0 0 -2 18.5387 -4.28719 -0.394217 -0.0574589 18.38 0.155407 0.00330153 
1989 1 7.25491 0.136979 6.80358 0 0 0 19.886 -4.44032 -0.397371 -0.107964 19.7164 0.157904 0.0116562 
2000 1 8.56436 9.59158 3.08492 0 0 0 0.247943 0.485412 -0.0309491 0.106585 0.235625 0.000957845 0.0113603 
1191 1 4.33916 7.39728 9.36907 0 0 -1 6.39029 -2.04552 -0.606194 -1.35598 4.18414 0.367471 1.83868 
4287 2 3.67597 4.85566 1.42255 0 0 0 11.0223 -2.10371 -2.55175 0.292039 4.42562 6.51143 0.0852866 
872 1 12.7493 8.30371 0.297845 0 0 0 0.0570814 0.01929 -0.0812974 -0.22383 0.000372106 0.00660926 0.0501001 
1963 1 4.91043 8.84793 8.80506 0 0 0 3.08499 -0.634248 1.04257 -1.26324 0.40227 1.08695 1.59577 
3539 2 4.81467 6.64462 0.454736 0 0 1 5.03677 -2.24201 -0.00581333 -0.100636 5.02661 3.37948e-05 0.0101276 
1101 1 4.4467 6.57295 1.28036 0 0 1 12.2928 -3.45756 -0.218978 0.538626 11.9547 0.0479514 0.290118 
1364 1 4.80127 6.47432 9.23569 0 0 -1 7.65935 -2.45489 -1.04187 -0.739847 6.02649 1.08549 0.547373 
1222 1 3.81342 6.63692 0.384624 0 0 0 8.75339 -2.81927 -0.393739 -0.806267 7.94829 0.155031 0.650066 
1980 1 5.27568 7.32893 9.60545 0 0 -1 6.92396 -2.12575 -0.496776 -1.46914 4.51881 0.246787 2.15836 
312 1 10.7857 3.63619 1.2499 -1 1 1 17.4702 -4.14556 -0.527862 -0.0770561 17.1857 0.278639 0.00593764 
2416 1 7.23983 6.68406 1.3304 0 0 1 2.69635 -1.14912 -1.08929 0.435118 1.32048 1.18654 0.189327 
551 1 5.61968 6.36218 0.333648 0 0 0 13.3808 -3.57891 -0.422048 -0.627737 12.8086 0.178125 0.394053 
4230 2 7.9282 7.40849 0.96823 1 0 0 2.06232 -0.656737 0.884631 0.921109 0.431303 0.782572 0.848441 
1784 1 7.96934 8.29841 9.18071 0 0 -1 2.4088 -1.04351 1.01389 -0.540294 1.08891 1.02797 0.291918 
2536 1 7.07098 1.21961 6.32152 0 0 -1 20.1329 -4.4635 -0.453155 0.0686729 19.9229 0.20535 0.00471596 
2954 1 9.44207 7.54248 9.615 0 0 -1 12.4574 -3.26171 -0.137132 -1.34158 10.6387 0.0188051 1.79984 
1230 1 5.69488 5.0415 3.21498 0 0 1 16.9719 -4.08798 -0.344104 -0.376746 16.7116 0.118408 0.141937 
3653 2 12.181 7.90438 5.92527 -1 0 0 4.56514 -1.44906 -0.69188 -1.40949 2.09977 0.478698 1.98667 
4032 2 8.52645 9.4288 5.7687 1 0 -1 1.80512 1.00953 -0.845857 0.265522 1.01914 0.715474 0.0705019 
2881 1 11.6776 7.7058 0.735356 0 0 1 9.84865 -3.12942 -0.128884 0.196865 9.79328 0.0166111 0.038756 
2830 1 12.6116 6.75298 7.92373 0 0 -1 10.4166 -3.22194 -0.0437092 -0.183746 10.3809 0.00191049 0.0337626 
2791 1 7.36988 2.02036 6.96036 0 1 -1 20.0849 -4.46881 -0.291195 -0.172695 19.9703 0.0847945 0.0298234 
481 1 11.4181 4.24061 7.55734 -1 1 0 17.7304 -4.16369 -0.627716 -0.00941509 17.3363 0.394027 8.8644e-05 
203 1 4.54101 8.51158 0.16987 0 0 1 0.738881 0.75312 -0.215348 -0.354001 0.56719 0.0463747 0.125317 
3103 1 5.56619 2.30649 8.43728 0 0 -1 20.6271 -4.53442 -0.229741 0.115577 20.561 0.0527811 0.0133582 
4221 2 7.42807 3.16992 6.05584 0 1 0 17.0434 -4.10372 -0.437663 0.106691 16.8405 0.191549 0.011383 
2263 1 6.77966 8.19245 0.46794 0 0 0 4.03579 1.92587 -0.554265 -0.139957 3.70899 0.30721 0.0195879 
161 1 1.10865 2.10309 6.89572 0 0 0 19.2146 -4.37294 0.302499 0.023251 19.1226 0.0915054 0.00054061 
3064 1 4.38327 7.45439 0.779398 1 0 0 4.63289 -1.69795 -1.26073 0.400523 2.88303 1.58945 0.160419 
204 1 5.7301 7.6031 2.03828 0 0 0 2.55666 -0.360858 -1.40032 0.68231 0.130218 1.9609 0.465546 
1037 1 5.51135 0.864619 7.10425 0 0 -1 20.3532 -4.5054 -0.225823 0.0601832 20.2986 0.050996 0.00362202 
3629 2 5.05677 8.07628 9.20271 0 0 -1 7.63428 -2.56734 -0.193487 -1.0028 6.59124 0.0374374 1.00561 
1613 1 5.6937 8.37329 0.121492 0 0 1 2.79083 -1.36057 -0.441293 -0.86309 1.85116 0.194739 0.744925 
2200 1 8.35171 5.41065 7.84303 0 0 0 9.73389 -3.10618 0.198544 0.21476 9.64835 0.0394196 0.0461216 
738 1 9.2926 8.21772 2.16468 0 0 0 1.58966 -0.400866 -1.09228 -0.485689 0.160694 1.19307 0.235894 
2009 1 13.225 8.71968 1.14674 0 0 0 1.24982 -0.914 0.36795 -0.52824 0.835396 0.135387 0.279038 
1908 1 7.81847 8.1369 0.642956 0 0 0 1.99691 -1.31014 -0.259901 -0.461411 1.71646 0.0675487 0.2129 
2908 1 6.20574 1.20501 2.99197 0 1 1 15.9388 -3.9609 -0.282689 -0.412523 15.6887 0.0799131 0.170175 
2076 1 11.8076 6.56035 8.6851 0 0 -1 10.4111 -3.20224 -0.00788511 -0.395768 10.2544 6.2175e-05 0.156632 
523 1 9.9527 3.92295 3.84999 -1 0 0 17.5249 -4.1567 0.380144 0.319774 17.2782 0.144509 0.102255 
3927 2 5.66568 2.2225 0.246375 -1 1 1 18.7876 -4.3316 -0.141787 0.0687691 18.7628 0.0201035 0.00472919 
4167 2 6.68344 2.5595 4.7768 0 1 0 15.656 -3.94888 -0.246413 0.0401375 15.5937 0.0607191 0.00161102 
2173 1 11.6173 8.46716 1.85931 0 0 0 7.76934 -2.2581 1.57218 0.445598 5.09903 2.47175 0.198557 
4129 2 0.631959 0.523776 4.76927 0 0 0 22.6135 -4.75126 0.181978 0.0772571 22.5744 0.0331161 0.00596866 
1997 1 5.46969 0.643568 9.55667 0 0 -1 20.2827 -4.50149 -0.137929 0.0186189 20.2634 0.0190243 0.000346662 
242 1 9.39597 8.4735 8.90821 -1 0 0 2.61864 -0.513706 1.46174 -0.466972 0.263894 2.13668 0.218063 
2041 1 9.90778 7.80104 5.52424 0 0 0 2.33158 -1.45781 -0.433406 -0.136114 2.12522 0.187841 0.0185269 
1656 1 11.5815 9.5475 7.72479 0 0 0 1.93853 -1.1873 0.711955 0.148236 1.40968 0.50688 0.0219738 
2326 1 7.049 9.48742 7.06315 0 0 -1 1.98069 -1.29005 0.554224 0.096466 1.66422 0.307164 0.00930569 
3451 1 10.3234 3.20651 3.15822 0 1 0 22.4797 -4.68876 0.121248 -0.693154 21.9845 0.014701 0.480463 
1171 1 10.7876 7.2478 2.41874 0 0 0 2.55148 -1.53065 0.265391 0.371689 2.34289 0.0704326 0.138153 
2 1 10.7589 6.53755 3.2052 -1 0 0 6.28812 -2.0977 -1.03219 -0.906847 4.40033 1.06541 0.822372 
2931 1 10.6271 4.17092 2.95808 0 1 0 15.3083 -3.88812 -0.27748 -0.337408 15.1175 0.0769954 0.113844 
3329 1 12.7299 9.40898 6.18792 0 0 0 0.358973 0.184277 -0.414984 0.390901 0.0339578 0.172211 0.152803 
1259 1 11.0268 9.36149 2.0187 0 0 0 0.376617 -0.50689 -0.00352935 -0.34593 0.256937 1.24563e-05 0.119668 
74 1 11.9546 5.57215 8.56393 -1 0 -1 13.246 -3.63164 -0.219696 0.0945928 13.1888 0.0482662 0.00894779 
1955 1 10.5474 9.36523 7.38125 0 0 0 0.781341 0.714242 -0.202803 -0.479656 0.510142 0.0411289 0.23007 
1875 1 0.909555 1.00727 1.8063 0 1 1 20.7873 -4.54159 0.384291 0.116357 20.626 0.147679 0.013539 
3905 2 0.955061 1.43099 2.60616 1 1 0 20.9448 -4.56125 0.370928 0.0462936 20.805 0.137588 0.0021431 
2405 1 1.83489 1.52694 2.24151 0 1 0 19.2931 -4.38657 0.134505 0.181618 19.242 0.0180916 0.0329852 
27 1 1.38909 0.651357 2.6809 0 1 0 22.5086 -4.73545 0.229702 0.177067 22.4245 0.052763 0.0313528 
2689 1 1.73988 1.32769 3.28516 1 0 0 20.3419 -4.5064 0.16565 0.0826723 20.3077 0.0274398 0.00683471 
3459 2 2.56265 1.3387 2.78198 0 0 0 19.3016 -4.38835 0.0913006 0.188861 19.2576 0.0083358 0.0356683 
1032 1 2.50803 0.649865 2.28708 0 0 0 21.0021 -4.57344 0.0966572 0.276431 20.9163 0.00934262 0.0764142 
820 1 3.44954 1.28789 2.71133 0 1 0 19.6997 -4.42744 0.0504867 0.308156 19.6022 0.0025489 0.0949603 
2197 1 11.6227 8.64963 0.0662825 0 0 2 0.346047 0.318289 -0.0819011 0.487885 0.101308 0.00670778 0.238032 
1863 1 4.44623 0.848587 1.79609 0 1 0 19.3008 -4.38619 -0.242706 -0.0565868 19.2387 0.0589064 0.00320207 
1231 1 4.52235 0.221034 2.69562 0 0 1 20.4384 -4.51736 -0.150442 0.0959695 20.4066 0.0226328 0.00921014 
3639 2 4.33742 1.17296 2.89303 0 0 1 18.9001 -4.34436 -0.0629201 0.15046 18.8735 0.00395893 0.0226382 
2256 1 6.77353 6.45732 6.73463 0 0 0 10.0725 -2.91548 -1.05645 0.675577 8.50004 1.11608 0.456405 
720 1 6.57093 4.55104 6.89443 0 0 0 16.3371 -4.02398 -0.351826 -0.144649 16.1924 0.123782 0.0209233 
279 1 5.7148 3.11319 7.7842 0 0 0 16.5661 -4.0617 -0.254667 0.0618449 16.4974 0.0648551 0.00382479 
3760 2 7.49981 5.95207 2.87369 0 0 0 23.3633 -4.35155 -0.934409 -1.88527 18.936 0.873121 3.55423 
1188 1 5.97893 0.559391 8.68053 0 0 0 21.0503 -4.58773 -0.0264717 0.0483797 21.0473 0.000700753 0.0023406 
2911 1 5.86117 2.3284 1.06108 0 1 1 17.4928 -4.17885 -0.168633 -0.0396057 17.4628 0.028437 0.00156861 
3606 2 7.37985 4.12323 6.90845 0 0 -1 15.5554 -3.56234 -1.6684 -0.285719 12.6902 2.78355 0.0816356 
1590 1 6.26452 7.23101 7.30077 0 0 0 11.0664 -3.24714 -0.72285 -0.00374253 10.5439 0.522512 1.40065e-05 
2680 1 7.423 1.09591 7.38681 0 0 0 18.3612 -4.27585 -0.247999 -0.129686 18.2829 0.0615033 0.0168185 
1587 1 8.78471 6.29769 0.119265 0 0 1 10.643 -3.05826 -0.796526 -0.809693 9.35297 0.634454 0.655602 
3517 2 11.375 7.16757 3.37 -1 -1 0 6.36693 -0.872305 -0.163626 -2.36204 0.760916 0.0267733 5.57924 
1695 1 10.7703 8.12311 0.386341 0 0 1 3.91721 -1.26039 -0.369977 -1.48046 1.58858 0.136883 2.19175 
2519 1 9.47956 7.06643 4.899 0 -1 0 10.0844 -3.17159 0.133971 -0.0863887 10.059 0.0179483 0.007463 
2592 1 11.1851 5.64091 1.01818 0 0 0 19.8449 -4.45273 0.00351661 -0.134432 19.8268 1.23666e-05 0.0180719 
234 1 10.6687 5.72077 1.99507 -1 0 1 10.3174 -3.20877 -0.0752857 0.124572 10.2962 0.00566793 0.0155181 
3803 2 8.09399 0.359419 7.32827 0 2 0 19.7582 -4.41353 -0.515268 -0.116271 19.4792 0.265501 0.0135189 
2539 1 12.4676 6.97306 1.85639 0 0 0 20.2946 -4.40117 0.841338 -0.465248 19.3703 0.707849 0.216456 
3237 1 13.5977 9.28534 4.83876 0 0 -1 0.999258 -0.629248 -0.636006 -0.445871 0.395953 0.404504 0.198801 
1363 1 8.26949 0.115198 1.53444 0 1 0 24.1301 -4.8287 -0.88552 0.172144 23.3164 0.784146 0.0296336 
427 1 2.09737 2.43183 1.79092 0 1 0 18.5085 -4.29839 0.071022 0.165147 18.4762 0.00504413 0.0272736 
699 1 1.23506 2.20945 2.90208 0 0 1 19.0655 -4.35446 0.269 0.178487 18.9613 0.0723609 0.0318576 
1026 1 1.73536 3.10904 2.44945 0 0 0 16.8563 -4.09746 0.192879 0.173133 16.7892 0.0372024 0.029975 
354 1 2.85745 1.86637 2.06232 0 1 0 18.851 -4.34116 -0.0713331 -0.0171426 18.8456 0.00508841 0.000293869 
4141 2 3.57244 2.544 2.11983 0 2 0 17.397 -4.17065 -0.0318179 0.0408443 17.3943 0.00101238 0.00166825 
2060 1 2.30029 2.23955 2.94811 0 0 0 18.1238 -4.25687 -0.0100873 0.0527155 18.1209 0.000101753 0.00277892 
753 1 2.92024 3.10356 2.34792 0 0 1 16.6155 -4.07525 0.0874411 -0.0145757 16.6077 0.00764595 0.000212451 
2422 1 3.43389 2.36359 3.05498 0 1 1 18.2229 -4.2666 -0.119701 0.0680855 18.2039 0.0143283 0.00463563 
1250 1 4.96765 1.97721 1.81895 0 1 0 17.7619 -4.21154 -0.113048 0.109812 17.737 0.0127799 0.0120586 
706 1 4.34899 1.97136 2.69046 0 0 0 17.7616 -4.20843 -0.179632 0.1357 17.7109 0.0322676 0.0184144 
164 1 10.071 8.86202 1.90972 0 0 1 5.35788 1.38568 -1.81374 0.384886 1.9201 3.28964 0.148137 
3921 2 4.74735 2.6759 2.37145 0 1 -1 15.6965 -3.94683 -0.339946 0.0590898 15.5775 0.115564 0.00349161 
3124 1 5.35626 2.94812 1.80205 0 0 1 16.15 -4.01528 -0.165564 -0.0079182 16.1225 0.0274114 6.26979e-05 
3991 2 6.88686 6.44639 4.6406 0 1 1 7.73012 -2.69466 0.458248 0.508853 7.26119 0.209991 0.258931 
3029 1 6.90051 3.72174 3.59248 0 0 0 14.4692 -3.78085 -0.381208 0.170496 14.2948 0.145319 0.0290688 
2196 1 5.93893 2.21679 4.40091 0 0 1 18.1362 -4.25141 -0.133352 0.2096 18.0745 0.0177828 0.0439321 
16 1 5.10481 0.312102 6.25622 0 0 0 20.789 -4.55618 -0.132802 0.112052 20.7588 0.0176363 0.0125557 
3969 2 7.11514 2.37293 8.78628 0 0 0 16.1888 -4.00315 -0.388159 0.113648 16.0252 0.150668 0.0129158 
1094 1 6.74747 2.81579 0.742304 0 0 0 15.7668 -3.95502 -0.323313 0.141664 15.6422 0.104531 0.0200687 
1844 1 8.18744 6.18332 3.38126 0 0 1 15.4075 -3.65393 0.110132 1.42975 13.3512 0.012129 2.04418 
2739 1 6.79748 1.04112 2.09967 0 0 1 19.4466 -4.38262 -0.486851 0.0466518 19.2074 0.237024 0.00217639 
2723 1 7.89787 2.70909 8.76018 0 0 0 16.6576 -4.06222 -0.38902 -0.0684542 16.5016 0.151336 0.00468598 
1184 1 12.2352 7.06919 6.25556 0 0 0 6.85815 -2.58993 0.386108 0.0363359 6.70775 0.149079 0.0013203 
3734 2 10.3105 7.16662 9.62697 -1 -1 0 6.7404 -2.49228 -0.285857 0.668752 6.21146 0.0817143 0.447229 
1829 1 11.108 9.28013 5.54647 0 0 0 1.11059 -0.756313 0.209117 -0.703455 0.57201 0.0437301 0.494849 
3756 2 12.9327 9.1821 3.52281 0 0 1 3.52405 -1.13304 1.35238 0.641356 1.28377 1.82894 0.411338 
2762 1 9.40541 0.411963 5.33559 0 1 -1 22.1143 -4.69094 -0.192982 -0.268464 22.005 0.0372422 0.072073 
1689 1 9.17582 0.470147 8.33583 0 0 0 22.4925 -4.70513 -0.590304 0.0765279 22.1382 0.348459 0.00585652 
1241 1 10.7269 9.2368 4.4902 0 0 1 0.183592 -0.137802 -0.159829 0.372903 0.0189895 0.0255452 0.139057 
2427 1 2.29322 3.99839 2.57882 0 1 0 15.6946 -3.96055 0.092905 -0.00597713 15.686 0.00863134 3.57261e-05 
4235 2 3.58332 3.1373 3.27047 1 0 -1 17.1034 -4.13141 -0.124216 0.139196 17.0686 0.0154296 0.0193755 
649 1 3.00595 4.41821 1.24391 0 0 1 14.2544 -3.73257 -0.103929 -0.558129 13.9321 0.0108012 0.311508 
3508 2 3.05335 3.91216 2.07569 0 1 1 17.2088 -4.14663 0.119263 0.00479592 17.1945 0.0142236 2.30008e-05 
1639 1 3.71865 4.38818 2.14643 0 0 0 16.6852 -4.07903 -0.18956 0.103998 16.6385 0.0359331 0.0108155 
1277 1 3.24078 3.91769 2.98726 0 0 -1 16.8893 -4.10665 -0.144318 0.0623655 16.8646 0.0208277 0.00388946 
1536 1 3.93143 3.17923 2.52171 0 0 0 16.2114 -4.01185 -0.292752 0.175237 16.095 0.0857037 0.0307081 
3869 2 4.38764 3.99392 2.73569 0 0 -1 14.9263 -3.86172 -0.0802028 -0.0834909 14.9129 0.0064325 0.00697073 
533 1 4.61582 3.75178 1.91456 0 0 0 16.6339 -4.0699 -0.191864 0.181551 16.5641 0.0368117 0.0329608 
1158 1 5.12643 3.38009 2.7873 0 0 0 15.1811 -3.8844 -0.301558 0.0407427 15.0885 0.0909374 0.00165996 
1035 1 5.24397 4.35079 2.57993 0 0 1 12.4427 -3.51286 -0.311696 0.0734791 12.3402 0.0971541 0.00539918 
2936 1 8.13913 4.6773 4.72491 0 0 1 19.2474 -4.35448 -0.484822 -0.225502 18.9615 0.235052 0.0508513 
1371 1 5.48014 3.16152 6.17448 0 1 0 16.4995 -4.05294 -0.26891 -0.0299162 16.4263 0.0723128 0.00089498 
1880 1 8.76829 7.7998 5.48499 0 0 0 8.12862 -2.50629 -0.528769 -1.25201 6.28148 0.279597 1.56754 
2789 1 8.65163 7.16944 8.74246 0 0 -1 4.02489 -1.79029 -0.762349 -0.488439 3.20514 0.581177 0.238573 
642 1 6.85707 1.7348 4.49186 0 0 0 18.7999 -4.30893 -0.446359 -0.18367 18.5669 0.199236 0.0337347 
3800 2 7.57056 5.39721 4.51582 0 0 -1 18.785 -4.32555 0.0072736 0.273054 18.7104 5.29053e-05 0.0745587 
1316 1 9.49771 1.3938 0.202067 0 1 0 19.0875 -4.35371 -0.363016 0.0315533 18.9548 0.13178 0.000995612 
2155 1 6.383 0.418012 7.45282 0 0 1 20.6017 -4.5272 -0.232329 -0.228275 20.4956 0.0539769 0.0521095 
2234 1 7.50176 2.40248 2.18701 0 0 1 16.9658 -4.09696 -0.404379 0.131102 16.785 0.163523 0.0171876 
2661 1 8.02658 3.72699 6.43353 0 0 1 16.8232 -4.08889 -0.30495 -0.105494 16.7191 0.0929945 0.011129 
2167 1 8.84567 1.60219 7.98999 0 0 0 19.1989 -4.33466 -0.63971 -0.0184541 18.7893 0.409229 0.000340554 
3848 2 9.73606 3.63349 5.50459 0 0 -1 17.2908 -4.07655 -0.819194 -0.037701 16.6183 0.671079 0.00142137 
1835 1 8.35033 1.61988 0.836309 0 1 0 21.0422 -4.5754 -0.261103 0.199265 20.9343 0.0681746 0.0397066 
3135 1 8.99628 2.44008 0.423229 0 0 1 19.241 -4.29861 -0.219238 -0.845519 18.4781 0.0480653 0.714902 
1849 1 9.91541 6.89946 3.76844 0 0 0 4.06661 -1.85072 -0.666099 -0.444713 3.42515 0.443688 0.197769 
3100 1 10.0526 4.82896 4.26468 0 0 -1 19.8411 -4.45199 -0.0854868 -0.116387 19.8202 0.00730799 0.013546 
2444 1 9.5149 5.68716 2.3781 0 0 0 14.4791 -3.32093 -1.75534 -0.607726 11.0285 3.08123 0.369331 
2120 1 9.44451 1.8536 2.3939 0 0 0 17.9094 -4.227 -0.198688 -0.0492631 17.8675 0.0394768 0.00242685 
1921 1 6.76167 9.63648 6.02066 0 0 0 0.978907 -0.535256 0.623451 -0.551105 0.286499 0.388691 0.303717 
3411 1 9.94902 1.29139 5.73507 0 1 0 17.0163 -3.97479 -1.03511 -0.381952 15.799 1.07146 0.145887 
4053 2 2.32812 4.36571 1.78478 0 0 -1 16.4434 -3.964 -0.462753 -0.718343 15.7133 0.21414 0.516017 
1018 1 11.5793 6.63737 0.847899 0 0 -1 14.9193 -3.78319 0.536812 0.564385 14.3126 0.288167 0.31853 
717 1 10.9446 4.43801 3.97691 -1 0 1 21.9737 -4.67521 -0.301696 0.158318 21.8576 0.0910207 0.0250647 
1083 1 3.95552 4.70441 3.1764 0 0 0 15.624 -3.94452 -0.254138 0.0135278 15.5592 0.0645861 0.000183 
662 1 2.89021 4.96791 2.09672 0 0 1 16.4528 -3.97552 -0.682341 0.4271 15.8048 0.465589 0.182415 
635 1 2.68964 4.82972 3.13349 0 0 0 19.4406 -4.37432 -0.274195 0.480374 19.1346 0.0751831 0.230759 
3481 2 11.3247 9.25305 9.17601 0 0 0 2.05346 0.626938 -1.28855 0.00627256 0.393051 1.66037 3.9345e-05 